ITEM: TIMESTEP
93600
ITEM: NUMBER OF ATOMS
4970
ITEM: BOX BOUNDS pp pp pp
0.0000000000000000e+00 3.6213000000000001e+01
0.0000000000000000e+00 3.6457999999999998e+01
0.0000000000000000e+00 3.6253000000000000e+01
ITEM: ATOMS id type element xu yu zu vx vy vz c_charge
3515 3 O 2.59082 8.21749 39.9358 -0.0150398 0.0167785 -0.00274503 -0.659264
	3517 2 H 2.62576 7.61603 40.657 -0.0190418 -0.0428664 -0.0332659 0.324207
	3516 2 H 1.74051 7.74583 39.4838 0.016465 -0.0928543 -0.0265723 0.319757

2177 3 O 1.29589 8.38587 6.59995 0.00160027 0.00245898 0.00888897 -0.708628
	1948 2 H 2.24591 8.70666 6.72674 0.0555575 -0.0583711 -0.0119826 0.370368
	2179 2 H 1.44381 8.1535 5.76969 0.0425411 0.0213746 -0.0187698 0.328207

19 2 H 3.89414 3.50828 1.15705 0.0460131 0.0262464 0.0288931 0.206544
	15 1 C 3.39845 4.31179 0.398005 -0.00941385 -0.0257645 -0.00676239 -0.260931
	18 2 H 3.84335 4.11794 -0.575723 -0.0337771 0.0533957 -0.0540899 0.195128
	17 2 H 2.33552 4.08648 0.473851 -0.000907169 0.0253494 0.00242735 0.196178

4581 2 H 6.03884 44.3264 7.8769 -0.0338836 -0.0156993 -0.045856 0.297245
	4580 3 O 5.31536 44.5294 7.25274 0.000276718 -0.00254509 -0.00385723 -0.637406
	4582 2 H 4.59325 45.0007 7.8737 -0.00812965 0.0177594 -0.0301347 0.369923

11 3 O 8.60615 7.88584 4.45907 0.00359962 -0.00575367 0.0015876 -0.417687
	5 1 C 7.84622 8.3213 3.71585 0.00176003 -0.0314864 -0.00230098 0.305743

2254 2 H 0.0651353 0.748937 44.9926 0.00666473 0.0442306 0.0148343 0.382338
	2252 3 O -0.529381 0.341534 45.5979 -0.013112 0.00364435 0.000977742 -0.671258
	2253 2 H -1.3268 0.633138 45.311 -0.0275025 -0.00598751 -0.0677312 0.352133

3959 3 O 2.8433 8.71401 1.01006 0.0100269 0.0175847 -0.0118233 -0.584293
	3961 2 H 2.83563 9.43176 0.252566 -0.0787818 0.00296728 -0.0345966 0.362443
	1965 2 H 3.46197 9.01861 1.59407 -0.0607762 0.017618 -0.0699428 0.387452

619 2 H 7.75212 1.02574 4.01193 0.0243258 0.0250361 -0.021679 0.364572
	617 3 O 6.71496 1.31938 4.00786 -0.00888548 0.00535432 0.000515252 -0.684618
	618 2 H 6.57474 1.80849 4.85389 0.00839363 0.0771803 -0.0447414 0.289616

455 3 O 9.40533 36.8511 40.381 -0.00131038 0.008885 -0.00994504 -0.710302
	456 2 H 10.2744 36.846 39.8371 -0.00403682 0.110821 0.00887588 0.267582
	457 2 H 9.78969 36.6305 41.2836 0.042898 -0.0591553 0.0200518 0.306488

2769 2 H 2.05638 40.9623 39.8382 -0.0452385 0.0124866 -0.00243948 0.312495
	2768 3 O 1.73224 40.9422 40.7536 -0.011799 -0.00641798 0.00550157 -0.629015
	2770 2 H 2.0824 41.9531 40.8842 -0.0196189 -0.0796811 -0.0620186 0.309216

8 4 N 5.15744 6.09724 0.837885 0.0026887 -0.0106475 -0.00311552 -0.441651
	13 2 H 5.81149 5.76542 0.137932 0.0311193 0.00213299 -0.0139683 0.239294
	14 1 C 3.91072 5.59243 1.11545 0.00480684 -0.017339 -0.0117135 0.48147
	16 3 O 3.27053 6.05606 2.00754 -0.0112109 -0.0066029 -0.00823065 -0.444853

848 3 O -35.4534 38.9687 7.49204 -0.000498596 -0.0190182 -0.0153958 -0.698961
	556 2 H -35.2842 38.6852 6.56403 0.0205388 0.0450742 -0.00335098 0.36202
	850 2 H -34.591 39.0097 7.74886 -0.03632 0.00631958 0.0664032 0.336891

177 2 H 3.52735 41.3385 7.59727 -0.060537 -0.0288928 -0.000903787 0.355495
	4517 3 O 4.1481 40.5853 7.302 -0.0243768 -0.00387335 0.00492144 -0.660393
	4519 2 H 5.10419 40.8742 7.56839 0.0331745 -0.0537174 0.0204368 0.289156

4093 2 H 10.7844 41.3366 38.0673 -0.0563429 0.0139042 0.00605336 0.306965
	4091 3 O 9.86232 41.1287 37.8984 -0.00429305 -0.0137543 -0.00095418 -0.717283

4110 2 H 4.30184 6.14395 8.85736 0.0552498 0.0364926 0.0414478 0.28393
	4109 3 O 3.71078 6.58391 8.13248 0.0132669 -6.12717e-05 0.0108115 -0.652539
	4111 2 H 2.67133 6.47412 8.59188 0.020086 0.00674977 -0.0492105 0.288523

4 1 C 7.85781 8.48682 2.1325 0.00899357 -0.0112252 0.0200079 -0.180653
	10 2 H 8.92779 8.30083 2.08591 0.0638563 -0.010927 -0.0471721 0.16741

4463 3 O -24.3654 8.24682 7.75973 0.00813882 -0.00952049 0.00791694 -0.788111
	4464 2 H -24.7761 8.75157 7.11499 -0.00900376 0.047204 0.0601918 0.363005

3790 2 H 43.4991 4.64366 7.75967 0.0236922 0.0434573 -0.0620159 0.312654
	3788 3 O 43.5875 4.09168 6.86033 -0.00807372 -0.00973537 -0.0106667 -0.622231
	3789 2 H 42.8662 3.49538 7.07218 -0.0116182 0.0337847 -0.0923977 0.314641

517 2 H 5.713 38.5027 36.4484 0.0355749 0.0278363 -0.0258744 0.326867
	500 3 O 4.72231 38.4056 36.3458 0.0108818 0.00232328 -0.0110262 -0.706229
	501 2 H 4.6129 37.8124 35.7195 -0.0418048 -0.0221063 -0.0168037 0.338547

2685 2 H 8.50799 1.39163 8.18431 0.00784659 0.0109791 -0.0299226 0.388196
	2762 3 O 8.58796 2.365 8.46204 0.0075501 0.00963601 -0.00423495 -0.624813
	2764 2 H 9.54167 2.59374 8.55109 0.0456255 0.0448109 0.0629036 0.395858

4747 2 H 0.269796 3.44532 3.10136 -0.0131409 0.015759 -0.01425 0.357657
	980 3 O -0.0578655 4.3273 2.64368 -0.00408494 -0.0103963 0.00019798 -0.67012
	982 2 H 0.72683 4.44146 2.14188 -0.0154531 0.0313709 -0.0498101 0.359246

1662 2 H 10.355 5.8593 43.0326 0.110043 -0.00435015 0.021046 0.342738
	1661 3 O 9.88224 5.1392 43.4794 0.0152655 -0.00734938 -0.000403812 -0.660026
	1663 2 H 9.61217 5.45872 44.2801 -0.0060751 0.0445201 0.00703319 0.377411

1148 3 O 4.25843 2.94272 3.233 0.0146718 -0.0110913 -0.00475623 -0.709315
	1149 2 H 3.64902 3.09119 3.84151 -0.075231 0.0382435 -0.026462 0.36981
	1150 2 H 5.04337 2.55372 3.88877 0.00835268 -0.106751 0.0278817 0.316144

4651 2 H 39.5913 37.4364 2.86189 -0.0207675 -0.00434111 0.00837853 0.312662
	4649 3 O 40.1713 36.5387 2.68789 -0.00398622 0.0048271 0.0160218 -0.684987
	4650 2 H 41.1785 36.7236 2.42087 -0.0149966 -0.0732048 0.00868023 0.331645

459 2 H 5.06088 5.22457 5.05783 -0.057513 0.0527427 0.035172 0.325717
	458 3 O 4.24571 5.83143 5.40996 0.00267958 0.00444166 0.00115527 -0.628729
	460 2 H 4.51759 6.17654 6.27251 -0.022865 0.0654388 0.0418653 0.39675

3069 2 H 36.6094 37.7802 5.17147 0.0115607 0.000858269 0.0524893 0.355743
	3068 3 O 36.9445 38.5942 4.87853 0.00341861 0.000402016 -0.000819239 -0.761244
	3070 2 H 36.521 39.4038 4.76651 0.0137952 0.020288 0.0460613 0.441551

1677 2 H 3.19414 39.2438 6.67381 0.0247951 0.0430296 0.00358773 0.382472
	4376 3 O 3.41759 38.5841 5.91366 -0.000729423 -0.00882551 -0.019602 -0.669119
	4378 2 H 2.67258 38.0414 5.5819 -0.0188587 0.011449 0.0464857 0.343263

4450 2 H -25.3548 2.4942 5.50735 0.0177251 -0.00384626 0.083174 0.318822
	4449 2 H -26.6282 3.01861 5.51958 0.00329378 0.0141289 -0.055891 0.360447
	4448 3 O -26.1609 2.3626 5.91176 0.020562 -0.00959384 -0.00324915 -0.712663

7 2 H 4.37985 7.73097 2.76936 -0.0347134 -0.0139549 0.0240204 0.227286
	1 1 C 5.51378 7.74172 3.0035 0.00199946 0.000199688 -0.00548748 -0.0836041
	6 1 C 6.21054 8.40523 3.91063 -0.0147691 -0.0132298 0.000536209 -0.13654
	12 2 H 5.63786 8.92981 4.67953 0.0112139 -0.0160392 -0.0565466 0.155784

535 2 H 43.6312 3.84746 2.4193 -0.0425468 0.0421242 0.0418716 0.336478
	533 3 O 43.2944 3.20431 1.65045 0.000260717 -0.00401756 0.0133693 -0.677195
	534 2 H 42.7165 2.79456 2.09497 -0.06521 0.00694198 0.0132153 0.373027

3459 2 H 1.78742 37.732 1.85027 -0.000586522 -0.126881 0.0431524 0.381542
	3458 3 O 1.55429 38.356 2.51959 0.0264717 0.010041 -0.0131034 -0.75709
	472 2 H 2.21475 38.6084 3.16774 0.00253642 -0.0531567 0.0285437 0.34199

2130 2 H 36.7875 2.32806 37.3945 -0.00273409 -0.00376928 0.0901712 0.398882
	2129 3 O 36.8944 2.96744 36.7047 0.00752038 0.000315731 -0.00858209 -0.718488
	2131 2 H 36.2998 2.71298 35.9496 0.0253003 0.00788003 0.0359844 0.332754

674 3 O 11.2343 39.3704 36.4772 -0.00431983 -0.0186385 0.00227602 -0.666674
	2194 2 H 10.5176 39.8335 37.1645 0.034585 -0.0626787 0.0269235 0.377563

1606 2 H 44.994 44.4742 7.0146 0.00675709 0.0379509 0.0444437 0.320864
	1604 3 O 44.6351 43.7742 7.70728 0.00792107 -0.0086422 -0.00433469 -0.747665
	1605 2 H 43.9274 43.2899 7.07866 0.00333582 0.0883778 -0.075797 0.30879

4876 2 H 11.5502 7.67455 1.11278 0.0277883 0.0428327 0.0511185 0.394162
	4874 3 O 11.7572 7.14631 1.71541 -0.0222015 0.000959018 0.00604863 -0.728929
	4875 2 H 10.8632 6.66588 2.09207 0.0396374 -0.0646013 0.0161143 0.287193

1954 2 H 11.7682 44.4337 5.8971 0.0645132 0.0741103 0.00769617 0.353568
	1952 3 O 11.321 44.2308 5.07908 -0.0227965 -0.00299891 -0.015977 -0.675342
	1953 2 H 11.9841 44.1358 4.44088 -0.0549911 -0.0558438 -0.00635973 0.345905

4227 2 H 4.3062 -0.0215949 8.11412 -0.0467594 -0.0585828 0.03336 0.328889
	4226 3 O 3.49471 -0.0862821 8.6387 -0.0027758 0.010303 -0.0063393 -0.684664
	4228 2 H 3.49732 0.596534 9.29376 0.0569388 -0.00142461 -0.00280285 0.372449

2937 2 H 45.5206 5.04399 38.6225 0.0155793 0.0134585 -0.0121783 0.320243

3899 3 O 45.1887 36.4945 7.13669 -0.0110227 0.0171404 -0.0123722 -0.669747
	3901 2 H 44.4797 36.2365 7.84156 -0.0130043 0.055374 0.00996023 0.348314
	3900 2 H 45.0874 35.9764 6.19227 0.0244854 0.0385814 -0.0669014 0.284756

4790 3 O 11.669 2.78456 44.2444 0.000963975 0.0128451 0.00970202 -0.71697
	4792 2 H 11.0841 2.48357 43.6255 -0.0486023 -0.0619894 -0.0158823 0.398951
	4791 2 H 11.9243 2.1527 44.9838 -0.0332079 0.0235915 0.0278297 0.374029

2 1 C 5.80331 7.13231 1.64947 0.00704844 -0.0210526 0.000158059 0.171226
	3 1 C 7.03521 7.66119 1.30344 0.00487303 0.00673671 -0.000325267 -0.0884619
	9 2 H 7.46601 7.23866 0.29587 -0.0123023 -0.00746582 0.0162117 0.138065

2035 2 H 8.22203 5.28385 40.9489 -0.0456734 -0.00985429 -0.00152106 0.340403
	2033 3 O 7.5161 4.84319 40.3505 0.0118567 -0.00781016 0.00342357 -0.69848
	2034 2 H 7.44932 3.97114 40.6216 0.00291304 -0.0105065 -0.00996903 0.316339

4479 2 H 7.339 7.27729 9.06289 0.12547 -0.0214655 0.0822444 0.356895
	4478 3 O 7.03392 6.53739 9.6385 -0.0094223 -0.0113222 -0.018085 -0.73056
	4480 2 H 6.48816 6.97645 10.1629 -0.0311543 0.0220197 0.0360992 0.323617

1350 2 H 10.24 0.130819 8.76817 -0.0349454 -0.0247546 0.0233476 0.344798
	2201 3 O 9.88565 0.756189 9.51502 0.0038388 -0.0119947 -0.00324576 -0.724665
	2202 2 H 10.4023 1.03245 10.181 0.0211616 -0.0647372 0.0307873 0.362568

4125 2 H 36.7913 8.44289 40.3065 -0.017409 0.0484258 0.0236399 0.362952

2454 2 H 8.07926 9.01325 44.3751 0.00111254 0.00226901 -0.00743686 0.37453
	2453 3 O 8.00166 9.88379 44.656 0.00124413 -0.00588886 -0.00163616 -0.734823
	2455 2 H 8.33396 10.4024 43.954 0.00132062 -0.0316383 0.0541023 0.418615

1765 2 H 7.94844 37.1491 37.6666 0.0542721 -0.0205071 -0.00419989 0.367874
	1763 3 O 7.90889 36.2565 37.2877 -0.00642736 0.00705939 0.0106801 -0.689687
	1764 2 H 8.08402 35.3608 36.9631 -0.0107919 0.0143097 -0.0199053 0.390186

2055 2 H 11.7064 8.89851 2.20359 0.0235472 -0.0671676 -0.0842869 0.329673
	2054 3 O 11.0192 9.53093 2.68479 -0.00414006 0.00526138 0.00126215 -0.651094
	2056 2 H 11.0889 9.82686 3.53851 0.052765 0.0119042 0.03883 0.361897

1206 2 H 9.62536 43.5904 9.02555 -0.0137433 0.00537446 0.0106571 0.373214

2184 2 H 4.22955 3.5828 11.0365 0.0202908 0.0651784 0.0354649 0.37857
	2183 3 O 4.23334 2.70983 11.322 0.0117614 -0.00606959 -0.00232176 -0.736234
	2185 2 H 3.6328 2.04241 11.1753 0.0540572 -0.0101872 0.0490006 0.361292

814 2 H 4.58622 4.11015 13.5218 -0.0655779 -0.0188887 -0.0147909 0.332438
	812 3 O 4.00169 4.89968 13.3372 0.013425 -0.00204102 -0.00833392 -0.589937
	813 2 H 4.83594 5.54242 12.7102 0.000394497 0.00848381 -0.0465555 0.228769

4316 3 O 38.6749 2.64933 14.3321 0.0124611 -0.00535733 -0.00324045 -0.656955
	4317 2 H 38.3679 3.15093 13.4642 -0.0209662 -0.0365781 -0.0123996 0.313019
	4318 2 H 39.2953 1.99065 14.0161 0.00245024 0.0489612 -0.042882 0.358892

4407 2 H 1.1957 4.94487 49.9342 -0.0500457 0.0328197 0.0116908 0.340788
	4406 3 O 1.3176 5.79985 49.5143 -0.00857903 -0.00651934 -0.0151654 -0.697883

4033 2 H 6.42531 44.3475 14.8537 -0.0141171 -0.0200354 -0.0837337 0.277706

3203 3 O 37.9988 38.1238 10.1575 0.00278397 -0.0114099 0.00943726 -0.678156
	3205 2 H 38.1799 38.9739 10.6461 -0.00269048 0.0403336 0.00819403 0.310413
	3204 2 H 37.7048 37.5378 10.912 -0.0202782 0.0462035 -0.0563513 0.3447

2237 3 O 2.1488 4.18089 17.0377 -0.0171677 -0.00550647 -0.00250964 -0.700818

1229 3 O 38.7166 41.2722 10.5113 0.000884864 0.0162255 -0.00133439 -0.699094
	1231 2 H 39.0511 41.4044 11.4368 0.0244957 -0.0573645 -0.0235632 0.342267

1555 2 H 5.60164 8.57176 12.8946 -0.0398012 -0.050862 0.0199064 0.304781
	1553 3 O 4.61884 8.72092 12.9936 0.00600297 -0.00584944 0.011701 -0.685018
	1554 2 H 4.37667 9.6435 12.8591 0.00246696 -0.0218747 -0.0320119 0.299181

3525 2 H 6.76077 39.2534 12.3871 0.0562607 0.0196896 0.0114532 0.343984

4032 2 H 3.58182 44.8002 16.0055 -0.0113177 0.0049408 0.0236087 0.376883
	4031 3 O 3.96945 43.8172 15.9343 0.0153365 0.0131014 -0.00475025 -0.63754

1025 3 O 6.47125 2.58661 13.3261 0.0143432 0.00793715 -0.000290102 -0.695455
	1027 2 H 6.90171 1.83672 13.7301 0.0623018 -0.00733281 0.01274 0.388374

3767 3 O 39.2273 36.7478 13.3114 0.00376764 0.00466738 -0.0195523 -0.63555
	3769 2 H 39.1954 35.7577 13.3873 0.0367338 0.0713393 0.085376 0.290361

2864 3 O 36.9712 36.9982 14.814 -0.00938845 -0.00305568 0.00774244 -0.742793
	2865 2 H 36.3715 37.4498 15.196 -0.083171 0.0768288 -0.0175787 0.353038
	2866 2 H 37.6216 37.6115 14.3839 -0.0645406 -0.00579386 -0.0504383 0.417165

4941 3 O 5.83987 2.53691 9.63912 0.00301051 -0.0068887 -0.00680019 -0.708908
	1378 2 H 6.65516 2.03576 9.35051 0.0486669 0.0201968 0.0479844 0.328588
	3190 2 H 6.16519 2.77897 10.3864 0.00500077 0.0251729 0.0121385 0.401039

867 2 H 47.0681 37.2203 13.8416 0.0782923 -0.101422 -0.00974782 0.368123
	866 3 O 47.6189 37.4315 14.6017 0.00139371 0.00834763 -0.00971901 -0.676916
	435 2 H 48.5007 37.5241 14.1637 -0.0414907 0.0209964 -0.00216405 0.297813

3533 3 O 40.3893 2.11934 17.505 -0.00442363 -0.034957 0.0117465 -0.717879
	3534 2 H 41.2432 1.73655 17.7509 -0.0699877 -0.0202599 -0.0350483 0.31733
	3535 2 H 40.3336 2.23621 16.6724 0.0537121 0.048287 0.0606371 0.390974

1972 2 H 41.989 37.3863 10.6562 0.0897816 0.0170386 -0.0287201 0.347686
	1971 2 H 41.8353 37.1244 11.9645 0.0020585 -0.0324674 -0.0700999 0.357321
	1970 3 O 42.2968 36.7107 11.2912 0.0107018 0.00836915 0.00563233 -0.776741

4338 2 H 1.8287 42.8094 13.923 0.0233835 0.0259908 0.112139 0.361468

566 3 O 36.3905 44.043 10.2642 -0.00438579 0.00945677 0.0133291 -0.700617
	567 2 H 35.5128 43.7397 10.3618 0.0640537 0.0477923 0.0116169 0.332879
	2836 2 H 36.2967 44.9924 10.1637 0.0460608 0.028606 -0.0116405 0.301702

2204 3 O 11.9668 39.5682 17.1431 -0.00438826 0.00432299 -0.00392211 -0.70927
	2206 2 H 12.1497 38.8016 17.7133 -0.0435314 -0.0147634 0.00997136 0.348982

1420 2 H 9.90002 4.55415 13.6698 0.0121895 -0.00111162 -0.0184437 0.333158
	1418 3 O 10.885 4.72763 13.6853 0.00493713 0.00159332 -0.00633891 -0.672621
	1419 2 H 10.8753 5.2682 14.4646 -0.01936 0.0198116 -0.027053 0.300802

1888 2 H 39.8367 0.246301 14.4195 0.00327543 0.00113446 0.0357783 0.219534

3246 2 H 11.0367 40.1072 -18.7229 0.0538987 -0.0458323 -0.0451155 0.344483

2239 2 H 3.83049 6.92757 16.8134 0.00704577 0.10233 0.0239585 0.329957

587 3 O 38.0087 8.14999 14.9923 -0.0147665 0.0186193 0.0157141 -0.634086
	588 2 H 37.1939 8.13019 14.3428 0.0141255 -0.0136515 0.0379018 0.341927
	589 2 H 38.8671 8.54463 14.4731 0.0263023 -0.0356639 0.0166833 0.308153

889 2 H 41.2221 0.394849 14.6602 -0.00940839 0.0191799 -0.0231426 0.295404
	887 3 O 42.2256 0.40036 14.8318 0.0167007 0.0105548 -0.00052653 -0.643456
	888 2 H 42.4339 -0.232509 15.6379 0.0413587 -0.0408404 0.00955652 0.363933

1171 2 H 1.55354 41.6478 10.4186 -0.042528 -0.0123466 -0.0985465 0.394366

2687 3 O 36.6217 4.69807 9.3356 0.0130866 -0.0147653 0.0115818 -0.83354
	4306 2 H 36.0565 4.80011 9.98485 -0.0410252 0.0412138 0.0129433 0.347583
	2688 2 H 36.7629 3.83172 9.11199 0.11295 -0.0456055 0.00726207 0.386483

1249 2 H 9.45282 2.36228 15.4872 0.0178206 -0.0770607 -0.00983906 0.386097
	1247 3 O 8.77302 2.0856 15.9931 -0.0191126 -0.0111999 0.00191488 -0.685641
	3529 2 H 8.90432 2.3699 16.8263 -0.0163239 0.0266724 -0.0232642 0.382429

4152 2 H 38.3408 4.65318 17.7889 -0.0721921 0.0319759 -0.0306445 0.31193

986 3 O 6.97037 7.49946 -20.5923 0.00814323 0.00652139 0.001679 -0.742819
	988 2 H 6.20304 7.62906 -20.0207 -0.0307568 -0.0228104 -0.0138045 0.32263

1156 2 H 8.20699 44.818 17.7211 0.00936684 0.0310425 -0.0225484 0.243437
	1154 3 O 8.48575 45.1545 18.8092 -0.0155097 0.00743406 -0.00820789 -0.668022
	1155 2 H 7.81705 44.8328 19.3197 -0.00399765 -0.00934222 0.0296505 0.370557

2551 2 H 8.7806 7.18847 14.4238 0.0867697 0.0170071 0.00220569 0.331499

1279 2 H 43.6419 42.4084 14.1748 -0.0240581 0.000571836 0.00739544 0.329587
	1277 3 O 43.8071 41.4486 13.9815 -0.00494424 -0.016102 -0.00539932 -0.686247
	1278 2 H 42.9994 40.9879 13.8366 -0.037579 0.0181283 0.0108002 0.368052

1230 2 H 47.6424 40.0122 11.8535 -0.00970083 -0.0301054 -0.0449082 0.394212

2535 2 H 11.0027 7.71117 14.4084 0.016375 -0.000685617 0.0243124 0.347266
	2534 3 O 11.3667 8.18822 13.6671 0.00589097 0.0106162 -0.00817254 -0.690377
	2536 2 H 11.012 9.07495 13.5734 -0.0362157 -0.0409127 0.0642548 0.347777

4469 3 O 45.4508 7.1268 13.6754 0.00456375 -0.0060272 -0.00501831 -0.668037
	4471 2 H 45.8339 6.28683 13.8262 0.016668 -0.0189464 0.0477657 0.334264

4263 2 H 37.5341 40.6406 16.6083 0.0646063 -0.0494959 0.00296442 0.348467

725 3 O 10.842 40.0427 11.0917 0.0152285 0.0103387 -0.0152558 -0.64017
	727 2 H 11.5036 39.7849 10.3162 -0.0603767 -0.0632257 -0.00754105 0.361716

1512 2 H 40.2201 41.0352 17.5734 0.0175776 0.00778551 -0.0132976 0.365201
	1511 3 O 41.0876 41.5738 17.7684 0.0126754 0.0182033 -0.000342438 -0.684178
	1513 2 H 41.9593 41.1403 17.2537 0.0202286 -0.00127305 -0.022086 0.262357

3416 3 O 9.2043 5.63069 16.5921 0.00384017 -0.00866704 -0.00587415 -0.644039
	3418 2 H 8.59066 6.46181 16.1467 -0.0299332 -0.00716015 0.0101874 0.287806
	1723 2 H 8.56436 5.4325 17.2996 0.0904641 0.00129783 -0.0431747 0.34367

1886 3 O 10.1313 7.43683 9.86277 -0.00729541 -0.00747003 -0.0087668 -0.606756
	1887 2 H 10.9896 7.78043 9.52553 0.10431 -0.0020929 -0.0259867 0.341062

3291 2 H 7.49379 41.284 10.4868 0.0489901 -0.080082 0.0268386 0.386865
	3290 3 O 7.65156 40.3937 10.8596 0.00190415 0.00800247 -0.00278313 -0.720141
	3292 2 H 8.56112 40.4682 11.1985 -0.0139061 -0.0453782 -0.00331575 0.384061

932 3 O 9.30578 0.819733 12.6102 0.00524689 -0.00964503 -0.00833135 -0.65722
	934 2 H 8.85287 0.589933 11.7878 0.0434356 0.127546 0.00464831 0.362532
	933 2 H 8.6019 0.857519 13.5023 0.0566516 -0.0115397 0.0131968 0.320794

4780 2 H 38.085 45.291 9.70778 0.0524182 -0.013263 -0.0504497 0.333738
	4778 3 O 37.9646 46.2439 9.95295 0.0118885 -0.00212479 -0.000304625 -0.678315
	4779 2 H 37.4183 46.6105 9.11179 0.00655267 -0.0725028 -0.0309318 0.290805

3781 2 H 12.0181 8.96233 16.4417 0.068738 -0.0243267 0.0654615 0.321474
	3779 3 O 11.3266 9.37646 16.8735 -0.00330765 -0.0103911 0.00661756 -0.682606
	3780 2 H 11.8214 10.1846 17.2296 -0.0555847 -0.0710684 0.00780299 0.400552

1710 2 H 36.4236 45.2149 48.7461 0.0846818 0.011893 -0.0863128 0.289584
	1709 3 O 35.8965 44.7127 49.4229 -0.000139014 0.0221552 -0.00367397 -0.737996
	1711 2 H 36.004 43.8458 49.0876 0.0222435 0.0113018 0.00446408 0.355215

4382 3 O 3.51416 4.37083 24.8649 0.0055341 0.00364071 -0.00419456 -0.67428
	4383 2 H 3.371 5.27389 25.2312 -0.0306565 -0.0183566 -0.0295964 0.311344
	4384 2 H 2.76718 4.03613 24.1792 -0.0548667 -0.0532979 0.0216108 0.399994

760 2 H 11.1928 41.8848 -13.2532 -0.0573926 -0.0243587 -0.0187013 0.336168
	758 3 O 10.8359 41.3428 -12.3706 -0.00859024 -0.00896829 0.00633735 -0.598437

3858 2 H 0.22964 44.412 25.7784 0.0219023 0.00211566 -0.00457311 0.242026
	3857 3 O -0.465834 44.3332 26.5882 -0.00650481 -0.00904831 0.00767057 -0.716293
	3859 2 H 0.00679978 43.8057 27.1994 -0.0249076 -0.0152048 -0.00405691 0.342515

4059 2 H 4.83483 0.811123 26.8031 -0.0701357 -0.0491647 0.0947781 0.32659
	4058 3 O 5.58431 0.863572 26.1047 -0.00221811 0.00673851 0.00475139 -0.672753
	4060 2 H 6.11496 0.146682 26.5991 0.0066731 0.0411497 -0.0610148 0.280922

3793 2 H 42.675 38.871 19.899 -0.0292761 0.0167567 -0.0251207 0.360054
	3791 3 O 43.2267 38.1121 19.7842 -0.00835066 0.0179166 -0.0154358 -0.679933
	3792 2 H 43.1941 37.861 18.8703 0.035794 0.0281956 0.0718545 0.356036

4926 3 O 38.9899 2.33186 20.3293 -0.00320538 0.00404473 -0.00475026 -0.641265
	3141 2 H 40.0162 2.53819 20.1859 -0.0438269 -0.0569218 0.0086682 0.290111

3337 2 H 2.46354 2.8863 19.6818 0.0104049 -0.0493537 0.0210658 0.363811

4262 3 O 38.9159 41.6703 20.1512 7.60347e-05 -0.00506595 0.0140059 -0.598792
	3391 2 H 38.2194 42.0073 19.5332 -0.00224698 -0.0615948 -0.028581 0.320554

1811 3 O 5.8176 42.6173 62.3363 0.01893 0.0109376 0.0158247 -0.731142
	1813 2 H 5.00423 42.8824 62.9437 0.000846097 0.0423717 -0.0548567 0.375319
	1812 2 H 5.49804 41.8986 61.9316 -0.0811926 -0.0998528 0.0241283 0.383704

2460 2 H 39.7592 4.7584 -14.0017 0.0668404 -0.0619862 0.040337 0.314948
	2459 3 O 38.7351 4.74577 -13.6136 0.00574364 0.014226 -0.00178992 -0.651451
	2461 2 H 38.4968 5.19453 -14.7306 0.0945709 -0.02862 -0.00236394 0.348951

4278 2 H 46.4388 8.38089 20.3214 -0.115389 0.0197924 -0.0247882 0.408222

3295 2 H 10.8415 37.2864 24.6288 0.00357999 -0.0174531 0.0170839 0.344826
	3293 3 O 10.8863 36.3244 25.0695 0.00039889 0.000300664 0.0082232 -0.648571
	3294 2 H 10.0184 36.0777 25.5307 -0.0549996 -0.00150329 0.0668863 0.350508

2070 2 H 5.18073 7.99876 26.0593 -0.0144778 -0.0620179 0.0201446 0.321064
	2069 3 O 4.28101 8.39693 26.1475 0.00337853 0.0115607 -0.0091307 -0.604028
	2071 2 H 4.0487 8.41442 25.0652 0.0374067 0.0345383 -0.0685531 0.30362

2821 2 H 5.2452 6.66439 22.4342 0.0166023 -0.0302321 -0.0360671 0.303788

4761 2 H 6.90563 4.48938 18.3831 0.0946144 -0.0191086 0.0621852 0.27582
	4760 3 O 7.73015 4.78467 18.9305 -0.00770077 0.00933098 0.0125721 -0.696477
	4762 2 H 7.52624 5.69688 19.1976 0.0978307 -0.0444304 -0.00354259 0.36895

2509 2 H 5.19794 3.31056 25.2799 0.0130922 -0.0356304 -0.0200537 0.335949
	2507 3 O 6.35968 3.39185 25.0828 0.00348976 0.00142112 -0.00523464 -0.601337
	3807 2 H 6.69677 2.58213 24.8807 -0.0291946 -0.0252316 0.0415939 0.368018

2016 2 H 11.1003 6.30957 19.1223 -0.0673556 -0.0505135 0.00190705 0.367015
	4241 3 O 11.0876 5.91013 20.0453 -0.00717488 0.0001352 -0.0156073 -0.670001
	4242 2 H 11.7746 5.31003 20.2088 -0.00244223 -0.0831589 -0.0309976 0.389077

438 2 H 9.08648 37.074 20.8496 -0.0150918 0.0413961 0.0334352 0.344214
	437 3 O 10.0827 36.9066 20.6013 -0.00437433 -0.0102171 0.00632324 -0.62104
	439 2 H 10.2072 37.6981 20.1587 0.0558609 0.0162836 0.0450775 0.3356

3691 2 H 40.3161 42.9724 21.491 0.0121192 0.0122345 0.0492622 0.355038
	3689 3 O 41.1363 42.5799 21.781 -0.00477471 0.0215001 0.00679932 -0.743482

3471 2 H 2.98158 36.6755 19.0236 0.000694642 -0.0407109 0.0108643 0.386515
	3470 3 O 3.49684 35.9122 19.0701 -0.0174799 -0.0124885 -0.00545911 -0.707673
	3472 2 H 3.91172 35.941 20.0179 0.0419849 0.00519623 0.0365107 0.374064

4534 2 H 36.2576 6.61027 24.1458 0.0199067 -0.0403178 0.0658944 0.331029
	4532 3 O 36.1182 7.39566 23.7049 0.00815381 -0.00753811 -0.0127224 -0.723657
	3765 2 H 36.6368 8.04343 23.7859 0.00805456 -0.0101737 -0.0423881 0.353013

1579 2 H 11.3098 4.01354 23.9706 -0.0695452 -0.0107901 0.0606858 0.389725

4118 3 O 2.69017 8.39941 23.9107 -0.00488973 0.00829406 -0.0110205 -0.695307
	4120 2 H 1.98953 9.37398 23.8647 -0.0114115 -0.00285238 0.0125759 0.356589
	4119 2 H 2.15133 8.12808 24.6763 0.0341182 -0.00951669 -0.0367308 0.263732

2558 3 O 0.700283 5.3879 27.1461 0.00955429 0.00244605 -0.00481811 -0.655557
	2560 2 H 0.235936 4.56237 27.6334 0.00440061 0.0297344 -0.0248567 0.333469
	2559 2 H 0.672442 6.0287 27.9886 0.0104097 -0.0276216 0.0377336 0.302451

3081 2 H 4.18365 37.4213 24.6625 -0.0232012 0.0312432 -0.0777815 0.345511
	3080 3 O 3.28277 37.8113 24.6977 0.00566837 0.00743373 -0.0236855 -0.745833
	3082 2 H 3.14901 37.6911 23.7891 -0.0391646 -0.0112447 -0.0448762 0.357588

3504 2 H 1.65623 43.0533 22.2585 0.0348906 0.0167165 -0.0626381 0.327063
	3503 3 O 1.56082 44.0373 21.7678 -0.00846225 0.0133617 0.00470973 -0.562749
	3505 2 H 2.15617 44.6316 22.188 0.0348249 -0.047021 0.0505735 0.39759

79 2 H 9.49821 44.0445 -9.58338 0.024096 0.0398742 -0.0935491 0.178367
	75 1 C 9.07341 43.3966 -8.78889 0.00399681 0.00863393 -0.0057603 -0.22946
	77 2 H 8.08327 43.889 -8.57924 -0.0240989 0.0205066 -0.00304091 0.119891

2199 2 H 48.0549 2.09989 25.5835 0.0211206 0.0088245 0.0388159 0.39042
	2198 3 O 47.4997 2.72394 25.5013 -0.00333544 0.00314006 0.00465681 -0.729132
	2200 2 H 47.1796 3.10312 26.3854 -0.0294208 -0.0331786 -0.0451785 0.381565

3119 3 O 4.0292 7.06918 18.9505 -0.00261446 0.00338853 -0.00674602 -0.703203
	3121 2 H 3.39608 6.9468 18.3184 0.0184973 0.0383365 -0.0445166 0.341545
	3120 2 H 4.62479 6.21691 19.158 0.0752785 -0.0668047 -0.0045722 0.391152

1729 2 H 6.19473 7.47376 20.5125 -0.00958512 0.0193933 -0.0202066 0.349021
	1727 3 O 7.00163 7.03828 20.6326 -0.00266876 -0.00289127 -0.00597498 -0.691276

2563 2 H 38.1584 0.392491 -10.8198 -0.0551588 0.026809 -0.0489596 0.312593

1685 3 O 8.00262 3.47042 22.1817 -0.00169501 0.00309292 -0.0111076 -0.672753
	1687 2 H 7.12825 3.61253 21.8087 -0.107825 0.00722729 -0.0350044 0.418835
	1686 2 H 8.48128 4.20087 22.3445 -0.0435611 -0.0365286 -0.0413965 0.38786

954 2 H 7.64991 37.7742 24.716 -0.0513039 -0.0677057 0.0202002 0.284824
	953 3 O 8.40443 37.0889 24.421 -0.00501934 0.00634418 -0.00149362 -0.578814
	955 2 H 8.40406 36.708 25.3919 0.0237919 -0.0777015 0.0893654 0.228147

2963 3 O 1.39151 39.0511 25.8422 -0.00712787 0.0085175 -0.0013378 -0.782052
	2965 2 H 1.98678 38.8775 25.2525 -0.0556716 0.0543593 0.0455988 0.453435
	2964 2 H 1.55682 38.5091 26.5188 0.0364071 -0.0073273 -0.0228802 0.373111

3944 3 O 37.5869 2.1973 22.8139 0.0147588 0.0030817 0.0075507 -0.761634
	3945 2 H 37.6131 3.08134 22.5752 -0.0100014 0.0134436 0.0240356 0.434179
	3946 2 H 36.9339 1.74233 22.9278 0.0967239 0.0665208 -0.0316505 0.435014

679 2 H 40.887 2.82867 21.6208 -0.00156546 -0.0273973 -0.0311944 0.32961
	677 3 O 41.6811 3.29656 21.5907 0.00321405 -0.0147308 0.00591909 -0.759401

653 3 O 44.7346 6.43292 22.6741 -0.0174786 -0.00599536 0.0173738 -0.631136
	655 2 H 44.6818 6.84713 23.4879 -0.0328069 0.0177121 -0.0271225 0.41342

3289 2 H 10.5607 2.38129 19.4442 -0.00447819 -0.101461 -0.0292571 0.291421
	3287 3 O 9.94795 2.91148 18.6959 -0.00190574 -0.00671937 -0.00500025 -0.704355
	3288 2 H 9.1751 3.36802 19.1037 0.0281471 0.0135379 -0.0127164 0.389465

4470 2 H 43.2318 6.83708 21.6296 0.00142944 0.0275942 0.0461881 0.352964

1086 2 H 5.29686 3.95478 -14.0766 -0.0332718 -0.0378732 -0.0244309 0.355885

1435 2 H 38.435 36.51 21.6634 0.0513801 -0.0436604 -0.0155812 0.374063
	3611 3 O 39.1988 35.8668 21.6135 -0.0148105 -0.000580646 0.0100209 -0.684713
	3612 2 H 38.6357 35.081 21.8372 -0.0366166 0.00165136 0.0474683 0.335493

4264 2 H 43.9524 42.1359 22.5833 0.00259047 0.0267906 0.02281 0.265753

4389 2 H 6.21878 -27.6814 -13.2738 0.0516867 -0.125608 0.0444521 0.248332
	4388 3 O 6.06961 -27.1732 -14.2305 0.0114482 -0.00418627 0.001966 -0.699073
	4390 2 H 5.69755 -26.4677 -13.7603 -0.102169 0.0259901 -0.0733447 0.339245

583 2 H 43.8002 43.5261 62.3082 0.0145358 0.0301543 -0.0275425 0.389065
	581 3 O 44.4184 43.7105 61.7248 0.0233932 0.0199615 0.0130828 -0.682525
	582 2 H 44.2765 44.7648 61.4475 -0.0452572 0.0418418 -0.0355462 0.225498

4348 2 H 45.2143 39.0118 25.8013 -0.0936108 -0.0569325 -0.0625342 0.33356

3128 3 O 11.1971 44.9195 20.2243 -0.0051306 0.0107678 -0.0057129 -0.676013
	3129 2 H 11.5558 44.2357 20.7336 0.0305781 0.0919042 -0.0887077 0.401148

3275 3 O 0.139601 4.41558 -11.903 -0.00183443 -0.00866323 0.0105604 -0.680381
	3276 2 H -0.0482797 5.26836 -11.5045 0.0208343 -0.0235173 0.0334895 0.308132

3152 3 O 45.2026 3.49932 25.8879 0.00405541 -0.0152635 0.0147013 -0.639235
	3153 2 H 45.8684 3.87502 25.3503 -0.00560137 0.0864573 -0.00874281 0.441763

4767 2 H 0.289617 3.89836 25.1141 -0.00321002 0.0466295 0.0294046 0.398218

4267 2 H 4.44751 8.90684 19.3575 0.0649746 0.0353219 -0.0431336 0.379493
	4265 3 O 4.62726 9.81506 19.6198 -0.0162915 0.00557112 -0.00964054 -0.573024
	4266 2 H 5.60637 9.78906 20.0949 0.0354917 0.0528458 -0.0266699 0.352862

1264 2 H 2.30601 0.152584 26.9195 -0.068048 0.0140913 0.0468182 0.306804

936 2 H 8.29038 0.499444 63.3581 0.0174766 0.00354796 -0.0726007 0.329549
	935 3 O 7.93622 0.695133 64.2589 -0.00216264 0.0266543 -0.00788918 -0.661657
	937 2 H 7.31954 0.834615 65.0165 -0.00700891 0.0445768 -0.0058154 0.369114

4962 3 O 37.7969 6.29324 30.5947 0.00495426 0.00457673 0.00154709 -0.221862
	4963 3 O 36.9026 7.0006 29.9957 -0.0171398 0.00531089 0.000773414 -0.257547

559 2 H 5.9229 2.64216 66.7597 -0.0421642 -0.0639122 0.0206087 0.352768
	557 3 O 6.69464 2.56032 67.2913 0.00999145 -0.0111883 0.00566287 -0.730553
	558 2 H 6.64128 1.51093 67.4429 -0.0322134 0.00380373 0.00787665 0.329415

2337 2 H 5.96755 40.8806 34.0228 -0.0718527 -0.0260526 -0.0598876 0.311381
	2336 3 O 5.24008 40.9359 33.4074 0.0129002 -0.00350374 0.00780831 -0.678324
	2338 2 H 5.72229 40.562 32.6438 -0.00442717 0.0618967 -0.0347573 0.297603

3134 3 O 0.158133 38.0254 32.2866 0.00033264 0.00338807 0.0103446 -0.660542
	3136 2 H -0.826548 37.7115 32.1186 0.0049267 0.0343686 -0.0175262 0.278791
	3135 2 H 0.0401025 39.0087 32.0947 -0.0301439 -0.034961 -0.0246434 0.302808

4170 2 H 11.3559 4.31895 33.2054 -0.0291611 -0.0258075 -0.0931113 0.298692
	4169 3 O 11.8947 5.13729 33.2431 0.00108091 -0.00311461 0.00579816 -0.607182
	4171 2 H 12.6653 4.83715 32.6285 -0.0567602 -0.00963754 -0.0117661 0.364848

1347 2 H 39.1497 44.3561 -4.88976 -0.002084 0.0443765 -0.021347 0.338551
	1346 3 O 40.0512 44.2619 -4.9648 0.0203629 -0.00532198 -0.00703048 -0.689132
	1348 2 H 40.2534 44.71 -5.87959 0.0142559 -0.0464916 -0.0272456 0.379654

1131 2 H 40.2955 5.74017 28.1723 0.050562 -0.120246 0.0221836 0.334588
	1130 3 O 39.8917 6.48871 27.665 0.00813203 0.00831725 0.0058043 -0.708778
	1132 2 H 39.1307 6.17571 27.2893 -0.0498223 -0.0156166 0.00795164 0.345647

2319 2 H 4.80152 4.63284 30.1189 -0.0159625 -0.066594 -0.00442318 0.271337
	4613 3 O 3.90341 4.17182 30.4026 -0.00546695 -0.0277393 -0.0045108 -0.652925
