ITEM: TIMESTEP
93800
ITEM: NUMBER OF ATOMS
4970
ITEM: BOX BOUNDS pp pp pp
0.0000000000000000e+00 3.6213000000000001e+01
0.0000000000000000e+00 3.6457999999999998e+01
0.0000000000000000e+00 3.6253000000000000e+01
ITEM: ATOMS id type element xu yu zu vx vy vz c_charge
3515 3 O 2.45408 8.09937 39.5246 -0.00513848 -0.0131856 -0.00728601 -0.65133
	3517 2 H 2.9296 7.37402 40.0748 0.0809256 0.0101023 -0.014967 0.353992
	3516 2 H 2.41315 7.80709 38.5275 0.0723032 0.0216384 -0.0433936 0.363924

2177 3 O 1.82725 8.38811 7.09726 0.0044125 0.000656367 0.00957724 -0.607593
	1948 2 H 1.51629 7.43032 7.14419 0.0165923 -0.0199945 0.0175446 0.305858
	2179 2 H 0.78461 8.6302 7.51388 0.028486 -0.0283915 0.0778635 0.300522

19 2 H 4.57211 3.30764 0.0424119 0.0251198 -0.04028 -0.0804955 0.145132
	15 1 C 3.69343 3.93466 0.200101 0.00855687 0.00485134 -0.00840682 -0.317869
	18 2 H 3.29457 4.33063 -0.707064 0.036092 0.00226319 0.0147381 0.169241
	17 2 H 2.81576 3.43863 0.547006 0.0339622 0.027369 0.0322191 0.183642

4581 2 H 5.42701 43.5308 7.01277 0.0170994 0.0465262 -0.00869939 0.259935
	4580 3 O 5.91067 44.3478 6.72111 0.0129682 -0.0051587 -0.00320669 -0.691368
	4582 2 H 5.68254 44.8996 7.44401 0.0559128 -0.00586066 -0.0703076 0.353562

11 3 O 8.27429 7.56643 4.68963 0.0164726 -0.00398421 0.003254 -0.519733
	5 1 C 7.55748 7.50541 3.53261 -0.027656 -0.0122612 -0.0187726 0.214681
	4 1 C 8.14893 7.24519 2.29322 0.001294 -0.0170239 0.00457322 -0.12705
	10 2 H 9.31541 7.40762 2.06009 -0.0278757 -0.022162 -0.0237445 0.227072

457 2 H 9.39128 37.908 40.247 -0.0229358 -0.0380515 0.0362261 0.355668
	455 3 O 9.4823 37.2231 39.7024 -0.004294 0.00395103 -0.0181386 -0.717345
	456 2 H 10.3417 36.5681 39.8403 0.0787831 0.0555728 -0.0227852 0.295976

1731 2 H 37.0078 6.62482 0.466495 -0.0258865 0.0513015 0.0195864 0.359925
	1732 2 H 36.2222 5.54197 0.108774 0.0369755 -0.0345997 0.022743 0.287737
	1730 3 O 36.8535 6.24031 -0.292928 -0.0114288 0.0140107 -0.00295836 -0.658819

619 2 H 7.50271 0.867444 4.04513 0.0108079 -0.0149186 -0.0391274 0.35806
	617 3 O 6.86803 1.56563 4.24902 0.0119972 -0.00408534 0.0179861 -0.626024
	618 2 H 6.01153 1.45184 3.7582 0.0214335 0.00962921 -0.000769948 0.349102

2769 2 H 1.16556 40.8378 40.2068 -0.0119866 0.0571703 0.0723532 0.328198
	2768 3 O 1.58719 41.1998 41.0567 -0.000477192 0.00679361 -0.00216226 -0.647757
	2770 2 H 2.5028 40.7372 40.9157 0.0254225 0.0240687 0.0635929 0.360514

8 4 N 5.21791 5.71559 0.79505 0.000501242 -0.00504238 -0.020238 -0.479554
	13 2 H 5.74739 5.26045 -0.0848088 -0.0670796 -0.041038 0.0149174 0.196259
	2 1 C 5.91179 6.63377 1.52953 -0.0139223 -0.0153727 -0.00405834 0.142753
	14 1 C 4.00666 5.18228 1.01286 -0.00704089 -0.00968765 -0.000985464 0.455541
	16 3 O 3.27824 5.70363 1.78658 0.00850657 -0.00716184 -0.000240703 -0.464145

848 3 O -35.0544 38.2659 7.3833 0.0110392 -0.0128695 0.00538001 -0.703348
	556 2 H -36.0016 38.3425 7.52282 -0.0222242 0.0232158 -0.0790824 0.316495
	850 2 H -34.8103 39.2134 7.12687 -0.0581628 -0.000399888 0.0681079 0.306798

177 2 H 4.15745 40.0539 8.03359 -0.0179161 -0.0835451 0.0361424 0.322276
	4517 3 O 3.19085 40.0881 7.78042 -0.0147965 -0.0112221 0.00862263 -0.696353
	4519 2 H 2.44409 39.5217 7.90553 0.00565177 0.0190731 0.0434194 0.35601

4093 2 H 9.8943 40.9782 38.8391 -0.053081 0.00499461 -0.00775476 0.364552
	4091 3 O 9.48514 40.6224 38.0359 -0.00737693 -0.00784145 0.00933756 -0.683515

4226 3 O 3.55624 0.242843 8.36217 0.00534085 0.0100593 0.00197012 -0.69047
	4227 2 H 3.41055 1.21398 8.1802 0.0422329 0.00654045 -0.0830853 0.312709
	4228 2 H 4.38493 0.148963 8.68527 -0.0321478 -0.0250954 -0.032023 0.316765

1765 2 H 8.29901 36.6434 38.3217 0.0143234 0.0395295 0.0506663 0.444373
	1763 3 O 7.7437 36.5404 37.6464 -0.00109226 0.00583534 0.00471746 -0.701491
	1764 2 H 7.34924 35.8456 37.2904 -0.0311228 -0.0509923 0.0114311 0.419375

3790 2 H 43.6618 3.82789 6.14954 -0.0323053 -0.0251706 -0.0154423 0.351957
	3789 2 H 42.874 4.90549 6.12303 0.0247349 -0.0277058 -0.0075334 0.303582
	3788 3 O 42.8297 3.98471 5.98072 -0.0207905 0.00380494 -0.0132152 -0.684244

3900 2 H 45.1398 37.1277 7.06841 -0.0262845 -0.0515028 0.0266227 0.315524
	3899 3 O 44.7687 37.1579 6.11892 -0.0100701 0.0127241 -0.025243 -0.677826
	3901 2 H 45.1681 37.9691 5.86674 0.0609284 0.0283375 0.0151892 0.305731

3798 2 H 5.93734 0.181945 6.6109 0.0208073 -0.00575227 0.0527081 0.33933
	3551 3 O 5.28264 -0.261631 6.17639 -0.00359598 0.00951126 0.00584912 -0.657048

2685 2 H 9.24133 3.98111 8.26942 0.077939 0.074395 0.116226 0.307742
	2762 3 O 8.85768 3.0752 8.38633 -0.00729503 0.0103443 -0.0152088 -0.709225
	2764 2 H 8.02207 3.12356 8.90385 0.0109691 0.0648749 0.0257877 0.36385

1662 2 H 9.99305 5.19871 43.139 0.0136717 -0.00308274 -0.0794729 0.310158
	1661 3 O 10.9083 4.92446 43.3617 0.0111251 0.00095665 -0.00415745 -0.696833
	1663 2 H 11.4192 5.63753 42.8056 0.0885398 -0.010695 -0.0261506 0.301296

4109 3 O 4.10628 6.59847 8.90986 0.00750225 0.0151566 0.00572772 -0.642935
	4110 2 H 4.38966 7.54178 8.63132 0.00622124 -0.0524703 0.0587532 0.304595
	4111 2 H 3.71945 6.56935 8.01095 0.0216407 -0.0731602 0.0212361 0.272312

1148 3 O 4.61522 2.81988 3.14751 -0.00296732 0.0142936 -0.00210323 -0.614213
	1149 2 H 4.91615 3.38378 2.24334 0.0548364 0.0320341 -0.00791429 0.280416
	1150 2 H 4.31787 2.05913 2.80277 -0.0233841 -0.0884929 -0.0428831 0.400999

4651 2 H 41.2055 36.8424 2.08158 0.0145571 -0.0322049 0.0292382 0.302041
	4649 3 O 40.5757 36.3165 2.69717 0.0235354 -0.0149549 -0.00387024 -0.689286
	4650 2 H 41.2589 36.5036 3.40017 -0.0295256 -0.0201009 -0.0277897 0.306351

459 2 H 4.05121 6.16888 6.42668 -0.0705367 0.00209739 0.0247266 0.276265
	458 3 O 4.1484 6.47079 5.42109 -0.00237605 0.0165184 -0.00263098 -0.648532
	460 2 H 4.41426 7.44702 5.55746 -0.0580773 -0.0567061 0.0202181 0.349736

3069 2 H 37.3855 37.3183 4.47032 -0.0117891 -0.0278661 -0.0511426 0.310722
	3068 3 O 37.0465 38.1356 4.73261 -0.000809019 -0.0175704 -0.00722858 -0.682385
	3070 2 H 37.2347 38.8512 4.09615 -0.0266274 0.00658918 -0.0403995 0.34843

1677 2 H 4.29278 38.471 5.68793 0.00646195 -0.0312668 -0.0494017 0.39191
	4376 3 O 3.53215 38.1924 5.34401 0.00803903 -0.0041482 -0.000818954 -0.684777
	4378 2 H 2.7582 38.1092 6.01187 -0.0502392 -0.0216137 0.00641096 0.349809

4450 2 H -25.0222 1.98533 6.49748 0.0236694 -0.0553717 0.0569494 0.292603
	4448 3 O -24.9034 2.26148 5.54116 0.0266215 0.00473334 -0.0110866 -0.713429
	4449 2 H -25.6473 2.85591 5.33938 0.0117107 0.0259379 -0.0264741 0.283565

7 2 H 4.17714 7.31988 2.85824 -0.0537808 -0.00101754 0.0077088 0.185341
	1 1 C 5.2671 7.24786 2.77601 0.000500084 -0.0100623 -0.000586488 -0.0923639
	6 1 C 6.13064 7.33054 3.79957 -0.00610413 -0.00571135 -0.001907 -0.0860006
	12 2 H 5.83204 7.21689 4.83338 -0.0172238 -0.0648023 0.0487948 0.220894

982 2 H 0.150725 3.38754 1.83484 0.0268947 -0.0149104 0.0809046 0.325922
	980 3 O -0.377568 4.08178 2.48861 -0.00214109 -0.00169233 -0.00561821 -0.727521
	4747 2 H -1.24643 3.60354 2.36712 -0.034149 0.0126784 -0.015224 0.37766

4791 2 H 11.6427 3.08098 43.8794 -0.0316672 -0.0215529 -0.100682 0.402381
	4790 3 O 11.5897 2.95263 44.7214 0.011011 -0.00874749 -0.00317031 -0.698458
	4792 2 H 10.647 3.33731 44.9823 0.0192042 -0.0217869 0.00307165 0.388229

535 2 H 42.7945 3.79514 2.69637 -0.0328073 0.0346529 0.064688 0.367236
	533 3 O 43.0455 3.16938 2.203 0.000947893 0.000490278 -0.00842215 -0.681139
	534 2 H 42.6839 3.40621 1.27848 0.0113911 0.0207515 -0.00679557 0.275276

3459 2 H 2.27029 37.5602 2.64913 0.0118277 -0.0521787 0.00311987 0.338085
	3458 3 O 2.49089 38.4634 2.29275 0.00517983 0.0148676 -0.00632702 -0.69575
	472 2 H 1.81118 38.7954 1.72186 -0.0510496 -0.062793 -0.0590571 0.374805

674 3 O 10.7716 38.5534 37.1007 -0.0161743 -0.0194847 0.0141434 -0.604378
	2194 2 H 10.5569 39.4575 36.9226 -0.0300482 0.00433328 0.016142 0.386614

1606 2 H 44.8579 44.5332 7.62632 -0.0528874 0.00790302 -0.00174663 0.308641
	1604 3 O 45.1647 43.8152 6.99287 0.0213882 0.00208938 0.0122728 -0.645692
	1605 2 H 44.5335 44.0749 6.06882 -0.0698146 -0.0309848 0.014213 0.421075

2055 2 H 10.9966 9.05744 2.58575 -0.00726586 0.0713081 -0.0111639 0.33704
	2054 3 O 11.1203 10.0204 2.81753 0.00676597 0.00567589 0.00602387 -0.605404
	2056 2 H 11.9893 10.0667 3.51715 0.0166522 0.0368041 -0.00615905 0.279486

4876 2 H 11.6058 7.24874 1.14833 -0.0105286 0.0384337 -0.0499979 0.317049
	4875 2 H 11.5597 7.07513 2.46111 -0.0892186 0.0154595 -0.058105 0.367732
	4874 3 O 10.9863 7.0224 1.85448 0.000409316 -0.00916924 0.00489353 -0.744977

1954 2 H 9.91745 43.5432 4.30835 -0.0786462 -0.000971492 0.111701 0.400097
	1952 3 O 10.7678 43.9194 4.47115 -0.00899125 -0.00602179 -0.0134372 -0.686991
	1953 2 H 10.8386 44.9415 4.62194 0.0580823 -0.0271517 -0.0398068 0.309398

2077 2 H 12.0259 36.545 8.12528 0.0489518 -0.0311597 -0.0104492 0.272641
	2075 3 O 12.859 36.6006 7.57222 -0.00517621 -0.019112 -0.0140034 -0.640309
	2076 2 H 12.6401 36.3128 6.66409 0.0700179 0.0665046 0.0561525 0.346686

2937 2 H 45.235 3.42728 38.3661 -0.00351817 -0.00428694 -0.069555 0.396407

2035 2 H 7.96314 5.40331 40.1097 0.0585257 0.00988044 -0.0248876 0.344385
	2033 3 O 8.12756 4.52355 40.3519 0.0118077 -0.00604205 -0.00343824 -0.743589
	2034 2 H 7.37166 3.94627 40.5135 0.0481238 0.0299918 -0.0092787 0.401987

3 1 C 7.1933 7.14908 1.22484 0.007202 -0.0326091 -0.0124358 -0.112062
	9 2 H 7.36614 6.45845 0.300318 0.00510971 -0.0375002 -0.0321655 0.122071

1887 2 H 10.8627 7.10772 8.94685 0.0177415 0.0220508 0.0513527 0.413553
	1886 3 O 10.2008 7.17016 9.70098 0.00300281 -0.000287815 0.00182537 -0.653969

4779 2 H 38.7375 45.2363 8.91967 0.030036 -0.0445177 -0.00753662 0.399577
	4778 3 O 38.7628 45.9123 9.50795 0.0119795 -0.00640432 -0.00804679 -0.711448
	4780 2 H 39.3219 46.6796 9.45092 0.0529547 -0.0145006 -0.0460246 0.406114

2129 3 O 37.1527 2.88867 36.2636 0.00781521 -0.00366336 -0.0149447 -0.71367
	2131 2 H 36.1573 2.99927 36.0421 -0.0592756 -0.00323241 0.00588112 0.314582
	2130 2 H 37.5422 2.65531 35.4054 -0.0487263 -0.00668469 -0.000646203 0.373478

3499 2 H 4.45235 36.4675 6.76371 -0.00578186 -0.0631634 -0.0892275 0.338369

4941 3 O 6.44372 2.11933 8.9943 0.00352343 -0.0119236 -0.0153447 -0.712021
	1378 2 H 6.55829 2.56789 9.79292 0.00680985 -0.0238806 0.0670364 0.308514
	3190 2 H 7.04913 1.37127 9.35641 0.103501 0.0419555 -0.0369941 0.313726

4480 2 H 7.02906 6.50317 8.29699 0.0473174 -0.00792706 0.0553113 0.262567
	4478 3 O 6.60897 6.53261 9.34663 -0.00888005 0.00335784 -0.00808791 -0.619685
	4479 2 H 6.05459 5.722 9.61858 -0.0290112 0.00506844 -0.00535682 0.310393

3783 2 H 47.9021 36.5669 2.81691 0.0256001 0.132595 0.0272611 0.313426
	3782 3 O 47.6629 35.7331 2.38255 -0.0178035 -0.0151307 0.00824279 -0.694566
	3784 2 H 48.0976 35.2118 3.08403 -0.0626388 0.067593 0.00268704 0.311951

744 2 H 6.90479 36.678 8.09824 -0.0229083 0.117324 0.0483248 0.303004
	743 3 O 7.07973 35.7268 8.35064 0.00755269 0.00185722 0.00761121 -0.617804
	745 2 H 6.17775 35.276 7.94415 -0.0145037 0.0252684 0.0306379 0.272062

2184 2 H 4.30861 2.59288 10.4936 0.0234795 -0.0226851 -0.0232144 0.308041
	2183 3 O 4.40048 2.6162 11.4774 0.0019523 4.6731e-05 -0.00456033 -0.669253
	2185 2 H 3.71405 1.78465 11.6242 -0.0800606 -0.0226815 0.0288177 0.33874

814 2 H 4.87503 4.37589 12.2136 -0.00183538 0.0150367 0.029563 0.347929
	812 3 O 4.99791 5.18741 12.834 0.0296884 0.00939958 -0.00794249 -0.728255
	813 2 H 4.39653 5.72853 12.5294 -0.0390393 0.013899 0.0113905 0.350324

4316 3 O 38.7979 2.71699 14.2283 -0.011577 0.00740993 0.00706532 -0.675422
	4317 2 H 39.6363 2.41069 14.4693 0.0987869 0.0165498 -0.00172709 0.323232
	4318 2 H 38.1737 2.53453 14.843 0.0427064 -0.0848258 -0.00636651 0.368469

1350 2 H 11.2758 0.398219 9.33836 0.0828193 -0.0847826 0.00418591 0.312448
	2201 3 O 10.3672 0.254831 9.63528 0.0138276 0.00698953 -0.00257123 -0.675813
	2202 2 H 10.0883 0.714865 10.3892 -0.00987436 0.000719405 0.02774 0.380608

4033 2 H 7.49217 43.2235 15.9544 -0.0103132 -0.0153734 0.0285662 0.294979

3203 3 O 38.133 37.951 10.7183 -0.0012046 0.00274156 0.0109861 -0.662377
	3205 2 H 37.8659 38.7466 10.3935 -0.0187318 -0.0803897 0.00859856 0.381625
	3204 2 H 37.5017 37.9825 11.6102 0.0326019 -0.0078926 0.0393958 0.295222

2237 3 O 2.11681 3.72386 17.4728 0.0121386 -0.0152813 0.0230879 -0.683057

1229 3 O 39.2536 42.0042 10.916 0.00341866 0.0140168 0.0139195 -0.632432
	1231 2 H 39.4767 42.5487 11.6233 0.0506983 0.0281512 -0.0130791 0.339349

1555 2 H 4.93277 8.27163 14.3266 -0.0443752 0.0277188 0.0206436 0.37669
	1553 3 O 4.59553 8.27881 13.2477 0.00387635 -0.0136599 -0.00179945 -0.623725
	1554 2 H 5.40194 7.94459 12.8639 -0.011335 -0.0143898 -0.0219941 0.316052

4406 3 O 0.819253 5.61724 49.2997 -0.00465962 -0.00659833 0.0067663 -0.616929
	4407 2 H -0.185355 5.5475 48.8679 -0.0628942 0.0237075 -0.0865628 0.408518

3525 2 H 7.41986 39.7581 13.0353 -0.00974866 0.0567539 -0.0229838 0.386787

4032 2 H 3.79171 44.1667 15.8987 0.0046732 -0.0545257 0.0920089 0.366168
	4031 3 O 4.78052 44.0559 15.8498 0.0084511 -0.0015084 -0.00430562 -0.700889

1025 3 O 7.16919 2.32126 13.1563 0.0162706 -0.00661684 -0.00671599 -0.707759
	1027 2 H 6.57971 2.12524 13.9535 -0.0207622 0.00713874 -0.0115834 0.389378

3767 3 O 39.7134 36.5145 12.7165 0.0114229 -0.00352608 -0.0103531 -0.710865
	3769 2 H 40.3658 36.2385 12.1739 0.107408 0.0281653 -0.0214977 0.314075

2864 3 O 36.5669 37.2638 15.2429 0.0092292 0.00885485 0.0107308 -0.674174
	2866 2 H 35.8746 36.7646 15.6057 -0.051958 -0.0404437 0.0771854 0.36324
	2865 2 H 36.8468 36.992 14.335 0.0479281 -0.0363351 -0.00261322 0.365837

4206 2 H 3.10408 36.6032 16.0055 0.0458369 -0.0474996 0.0163096 0.31591
	4205 3 O 3.22412 35.6294 16.1429 -0.0157881 -0.00121141 -0.0126886 -0.602724
	4207 2 H 2.82396 35.6356 17.0046 -0.0152114 -0.0295768 -0.0265998 0.376007

3533 3 O 40.5324 1.07712 18.0956 0.00660045 -0.00152941 0.0140104 -0.712559
	3534 2 H 40.4746 1.8624 18.2098 -0.0336557 -0.0565503 0.0626324 0.335219
	3535 2 H 39.7964 0.824575 18.7701 0.0455174 -0.0929025 -0.0646342 0.369897

1206 2 H 9.48886 42.9377 9.58012 -0.0698426 -0.0970978 -0.0130204 0.351166

1972 2 H 43.8751 37.4577 11.2646 0.0704112 -0.0428651 -0.0727278 0.286174
	1970 3 O 42.8719 37.2334 11.2774 0.0127087 0.0118645 0.00294485 -0.724539
	1971 2 H 42.5947 37.4782 12.2212 -0.050196 -0.00148997 0.0370895 0.336807

4338 2 H 0.872547 41.6186 13.8599 -0.00787172 -0.00319046 -0.0606386 0.385318

566 3 O 36.3335 44.6114 10.7336 0.00365364 0.0082492 0.000443376 -0.666162
	567 2 H 36.2296 45.4692 10.2654 0.00520337 0.0220073 0.0123212 0.384956
	2836 2 H 37.1505 44.3199 10.3357 -0.0727717 0.0374999 0.0201464 0.343957

2204 3 O 11.6811 39.5849 16.5958 -0.00325805 0.0067943 -0.00977134 -0.704734
	2206 2 H 12.235 38.9369 17.2185 -0.0447912 0.0429826 -0.0469633 0.269089

1420 2 H 11.4442 5.04288 13.0152 -0.00421225 0.0103311 0.00745035 0.304335
	1418 3 O 10.7779 4.41056 13.4028 0.000325475 -0.0103421 -0.00942074 -0.648288
	1419 2 H 10.8184 3.72403 12.7674 0.0108053 0.030719 -0.0304879 0.357734

1888 2 H 40.0797 0.856615 13.0316 0.00134326 -0.118309 -0.0748785 0.302972

3246 2 H 10.8022 39.3844 -19.3866 -0.0227364 -0.0422614 0.0259608 0.377986

2239 2 H 5.14412 7.95172 16.5834 -0.00653743 -0.0112902 0.00592094 0.39704

587 3 O 37.3864 8.82276 15.6623 -0.0142359 0.0098822 0.0125604 -0.640545
	588 2 H 37.5369 8.83167 14.5561 0.0360186 -0.0208343 0.032698 0.351772
	589 2 H 36.4069 8.75565 15.7111 -0.0129205 0.0711466 0.0232386 0.328971

889 2 H 41.906 0.335317 14.1606 -0.0230531 -0.00219141 0.0400433 0.264673
	887 3 O 42.6118 0.695204 14.8173 -0.00690949 -0.00739455 -0.0102552 -0.668863
	888 2 H 43.6099 0.342962 14.4902 -0.040241 -0.0110713 0.0458077 0.36359

1171 2 H 3.88576 41.7702 10.6046 0.0248151 -0.00678573 0.0530987 0.336086

2455 2 H 8.09226 9.03619 45.7167 -0.0691392 -0.00575613 0.0224459 0.320466
	2453 3 O 7.85421 9.87301 45.1879 -0.000585511 -0.00232571 0.0175363 -0.728012
	2454 2 H 7.29796 9.51205 44.6194 0.0196254 0.0291038 -0.00155495 0.347299

2687 3 O 36.7752 4.00878 9.54745 0.0111898 -0.0123867 0.00332059 -0.719571
	4306 2 H 35.9043 3.65764 9.27429 -0.0704831 -0.0351747 -0.0314843 0.415306
	2688 2 H 36.8762 4.86431 9.75892 0.0015767 0.0929069 0.0167252 0.405522

1249 2 H 7.55579 1.30531 16.3918 -0.0430925 0.027829 0.0877876 0.411589
	1247 3 O 8.26563 1.85519 16.1745 0.00320321 0.00435795 0.00740968 -0.669238
	3529 2 H 9.0652 1.3093 16.1988 0.0215273 -0.0253776 0.00427934 0.363599

4152 2 H 37.7609 3.72861 16.7883 0.0994023 -0.0379301 -0.0398012 0.391981

986 3 O 7.16801 7.57116 -20.5429 0.00627074 -0.013489 0.0116035 -0.712634
	988 2 H 7.00505 7.31432 -21.5052 -0.0018102 -0.0413529 -0.0289841 0.287764

435 2 H 47.9526 38.297 14.3584 0.0286772 0.00485391 -0.0342661 0.429372
	866 3 O 47.586 37.4454 14.3384 -0.00530586 -0.00527028 0.00644243 -0.63684
	867 2 H 48.3612 37.0012 13.9755 -0.0067509 0.0363051 -0.0295867 0.351804

1156 2 H 7.83046 44.9479 17.502 -0.00366958 0.0225967 -0.043527 0.401699
	1154 3 O 7.9375 45.2019 18.3464 -0.00711227 -0.000276497 -0.00778308 -0.627026
	1155 2 H 7.05987 44.6209 18.7211 -0.033442 -0.0315206 -0.00112771 0.321528

2551 2 H 9.1802 7.23811 14.5414 0.00998093 -0.0132482 0.0113781 0.308782

1279 2 H 44.1171 42.1574 14.5167 0.0787731 -0.0265922 -0.00970529 0.337875
	1277 3 O 43.5986 41.4617 14.0496 -0.00977694 0.0110576 0.00570994 -0.667721
	1278 2 H 42.7682 41.8032 13.5569 0.0117842 -0.00846063 -0.0327981 0.381852

1230 2 H 47.841 40.0588 10.2474 -0.0415743 0.0622045 0.0599403 0.379407

4469 3 O 45.3776 6.89222 13.5925 -0.00198556 -0.00448137 -0.00267309 -0.713826
	4471 2 H 45.5848 6.09166 13.4838 -0.0245156 -0.0099711 -0.00707258 0.430215

2093 3 O 0.132947 41.5881 16.0647 0.000193939 0.0199488 -0.00749649 -0.689461
	2094 2 H -0.801644 41.4926 15.7559 0.00193087 -0.00817713 0.0266736 0.325764
	2095 2 H 0.131609 42.1441 16.8296 0.0801041 -0.0393651 0.0169297 0.352532

2534 3 O 11.4518 8.58687 13.6137 -0.00411002 -0.0125878 0.001011 -0.657739
	2535 2 H 11.847 8.16399 14.2823 -0.0535874 0.0549387 -0.0162488 0.350663
	2536 2 H 11.5556 7.89853 12.8088 0.0338405 0.0294179 0.0163777 0.328714

4263 2 H 39.0149 39.6477 17.1789 0.0154199 -0.0342534 -0.0608878 0.3006

725 3 O 10.7779 40.3181 10.5962 -0.00589936 0.00841661 0.0133334 -0.660007
	727 2 H 10.753 39.5958 11.2141 -0.0160007 0.0128359 0.000554317 0.30652

1512 2 H 41.8738 42.3944 17.9804 0.0905691 -0.00181695 0.00221847 0.315739
	1511 3 O 41.954 41.6638 17.2735 0.0146131 -0.00305001 -0.0106427 -0.65108
	1513 2 H 42.338 41.995 16.4541 0.0212994 0.0462755 0.00243409 0.342673

3416 3 O 9.40119 5.27791 16.3101 -0.00389687 -0.00670395 0.00186582 -0.67395
	3418 2 H 8.71159 5.26728 16.886 0.104336 -0.0305941 -0.0202468 0.323622
	1723 2 H 10.2482 4.95433 16.9199 0.00350544 0.0089148 -0.0136673 0.293206

3781 2 H 11.1307 7.76168 17.0552 -0.110789 -0.00404223 -0.0134736 0.325701
	3779 3 O 10.7679 8.56097 17.1902 -0.0140371 -0.0205439 0.0054552 -0.690703
	3780 2 H 11.1407 9.11466 16.47 0.00629122 -0.00831173 -0.035972 0.346866

3291 2 H 8.45604 39.3639 10.9077 0.0305723 -0.109083 0.0588602 0.329243
	3290 3 O 8.19117 40.2292 10.919 0.00910781 -0.00159538 5.90387e-05 -0.673963
	3292 2 H 7.34411 40.1509 11.3429 -0.0321192 0.0127475 0.0123356 0.299027

932 3 O 9.73811 0.711922 12.3206 0.00316666 -0.0110682 -0.00727447 -0.665302
	934 2 H 10.2424 -0.245796 12.5895 -0.00181468 0.0126353 -0.0550194 0.302696
	933 2 H 8.9219 0.39147 12.4463 0.0440003 0.098769 0.0752239 0.340938

4308 2 H 47.6471 5.93146 14.8962 -0.0260693 0.00582407 0.0897931 0.328046
	4307 3 O 48.3344 6.17958 15.5796 -0.0127236 -0.00162429 0.00184655 -0.665815
	4309 2 H 47.732 6.2242 16.2894 -0.0453937 0.0754663 0.0302767 0.336144

3289 2 H 8.91119 2.66998 17.8593 -0.0116491 -0.0571461 -0.0329975 0.404553
	3287 3 O 9.70771 2.4657 18.2766 -0.00979397 -0.00346934 -0.0111584 -0.673003
	3288 2 H 9.73446 3.42515 18.6832 0.0273594 0.00795487 0.00485421 0.302911

1710 2 H 36.7803 45.4874 48.7235 0.0186692 -0.016667 0.0187007 0.318615
	1709 3 O 36.339 45.3133 49.6257 0.0145033 0.000185032 0.0236274 -0.718788
	1711 2 H 35.6106 44.5864 49.5283 -0.0630206 -0.0381331 -0.00754869 0.370201

608 3 O 7.27971 36.6115 17.9523 0.00757557 0.0101086 0.00652073 -0.689197
	609 2 H 7.21057 36.2151 17.1141 0.0105206 0.0188314 -0.0212809 0.386823
	610 2 H 6.58478 37.0124 18.4309 0.000171679 -0.0317368 -0.00982725 0.422189

844 2 H 11.8954 8.13861 10.6839 -0.00308236 -0.00447276 -0.0127178 0.3512
	842 3 O 12.6206 8.56304 11.2588 -0.00784394 -0.0175673 -0.0209204 -0.724656
	843 2 H 12.2651 9.36534 11.6989 -0.0542722 -0.0258463 0.040128 0.331568

2059 2 H 8.25185 45.2328 14.5672 0.0368212 -0.0145862 -0.0277908 0.378212
	2057 3 O 8.13198 46.2163 14.5049 0.000229441 0.0111534 -0.00468527 -0.654165
	2058 2 H 7.32693 46.5339 14.305 -0.0873185 -0.00637141 0.0070854 0.439605

4382 3 O 3.80293 4.43666 25.2353 0.0115141 0.00832918 0.0152917 -0.665417
	4383 2 H 3.24085 4.08987 24.454 0.0189025 -0.0575373 0.0529737 0.336821
	4384 2 H 4.49921 5.04125 25.3372 -0.00462492 -0.0285892 -0.0106115 0.378278

760 2 H 9.46697 40.6835 -11.5441 0.0352273 0.0230471 -0.0148505 0.355918
	758 3 O 10.1335 40.8975 -12.1668 -0.0187449 -0.0100179 0.00970123 -0.648924

3858 2 H 0.435586 43.7315 26.759 -0.00807931 -0.0131307 0.00494917 0.373795
	3857 3 O -0.463943 43.5379 26.5462 0.00139497 -0.00909752 0.000342898 -0.698255
	3859 2 H -0.474066 42.4741 26.4394 0.0057985 -0.0511572 -0.0627249 0.358789

3085 2 H 11.56 38.1487 18.3883 -0.00278737 0.0385651 -0.0437399 0.367381

3793 2 H 42.0286 38.94 18.9756 0.0501601 -0.015646 -0.00434543 0.339109
	3791 3 O 42.8614 38.8289 19.1329 -0.0145136 0.00734329 -0.0109706 -0.673907
	3792 2 H 42.8417 38.9097 20.1417 -4.05951e-06 0.0933994 -0.0210658 0.313408

4926 3 O 38.9818 2.02864 19.8094 -0.00346108 -0.0130708 -0.021299 -0.824436
	3141 2 H 38.202 1.6677 19.9646 -0.00278964 0.0230339 0.0526492 0.334096

3337 2 H 2.72949 2.49988 19.0011 0.0211557 -0.0148373 -0.00484202 0.343682

4262 3 O 38.7212 41.2199 20.208 -0.0049121 -0.00816855 0.00741191 -0.572849
	3391 2 H 39.2627 40.4731 20.3258 0.0154632 -0.00178767 -0.0600807 0.327024

1811 3 O 6.59036 42.4891 62.8368 0.0175558 -0.00114584 0.00477055 -0.712402
	1813 2 H 5.92655 42.6378 63.3113 -0.0388849 0.0306671 0.0393287 0.401598
	1812 2 H 6.97259 41.6566 63.3104 0.0536879 -0.041839 0.0557818 0.301689

2460 2 H 39.2306 4.48193 -13.4496 -0.00876036 -0.0289718 0.00243759 0.327088
	2459 3 O 39.0667 5.35291 -13.6658 -0.00684642 0.00555989 -0.00180694 -0.618703
	2461 2 H 39.1249 5.45489 -14.9785 0.014595 0.0108891 -0.0529596 0.330989

4278 2 H 46.2397 8.16155 20.4552 0.0447085 0.0350031 0.0561326 0.318703

3295 2 H 11.5458 37.0564 25.9117 0.00982206 -0.0439273 0.00295605 0.349569
	3293 3 O 10.9663 36.2665 25.5895 0.00363667 0.00150542 0.0125568 -0.611666
	3294 2 H 10.548 35.8645 26.4918 0.0204643 0.07835 -0.0589536 0.404572

2070 2 H 5.58779 8.8387 25.6438 0.0817266 0.0329727 -0.00942516 0.279919
	2069 3 O 4.51309 8.9673 25.4752 0.000109934 -0.00495046 -0.00772729 -0.621651
	2071 2 H 4.18526 9.43297 24.7878 0.0342276 0.04148 0.0125913 0.431568

2821 2 H 5.77548 7.357 22.3763 0.0261597 -0.0378143 0.0326913 0.343943

4761 2 H 7.56227 4.86388 18.6233 0.0504169 0.00739612 -0.00491609 0.349417
	4760 3 O 8.02491 4.98855 19.4553 0.00471383 0.00080071 0.00775484 -0.6518
	4762 2 H 7.97033 5.11649 20.4525 0.0134619 -0.0505814 -0.0778691 0.35868

2509 2 H 6.46115 3.61722 24.1923 0.0410903 -0.0675086 0.0656408 0.39086
	2507 3 O 6.19569 3.37115 24.9604 -0.0114064 0.00664251 -0.00381107 -0.746746
	3807 2 H 5.20618 3.04816 25.1461 -0.000202509 0.0142227 -0.0682089 0.381983

2016 2 H 10.3874 4.74054 19.9564 -0.043091 -0.0515622 0.03056 0.327422
	4241 3 O 10.3708 5.56573 19.3866 -0.0164176 -0.00709561 -0.00846278 -0.682672
	4242 2 H 11.3472 5.57886 19.1545 -0.062658 0.053775 -0.0428749 0.344308

438 2 H 10.5318 36.5244 21.7898 0.00544228 -0.0762971 0.0690481 0.356277
	437 3 O 9.85887 36.5911 21.1355 -0.0058795 -0.0079662 0.00779461 -0.625249
	439 2 H 8.94694 36.6848 21.5367 -0.00304144 0.0617112 0.0483248 0.333477

3691 2 H 41.0493 42.995 23.0278 -0.00927562 0.0203677 0.019013 0.377519
	3689 3 O 41.1563 43.5162 22.2646 0.0135673 0.0159198 0.00876779 -0.744995

3275 3 O 0.0237563 4.57079 -11.632 0.00554654 0.00717941 -0.0018733 -0.662485
	3276 2 H 0.000642892 4.93087 -12.3501 0.0475695 -0.051169 -0.00383349 0.395444

2560 2 H 1.35363 4.73199 27.1583 -0.0240075 -0.056951 0.00484895 0.364321
	2558 3 O 1.45274 5.64801 27.3699 0.0245793 0.00521414 0.0120174 -0.726236
	2559 2 H 1.18601 6.01137 28.1711 -0.00717587 0.0332542 -0.000809875 0.367335

1579 2 H 10.844 4.33906 24.877 -0.0131135 -0.00507048 -0.0437734 0.264492

4118 3 O 3.19585 8.12539 23.5913 0.0081852 -0.00668326 -0.00537002 -0.608417
	4120 2 H 2.38889 8.71887 23.1953 -0.0290603 0.0423511 -0.00956357 0.400429
	4119 2 H 2.78027 7.78335 24.4391 0.0235748 0.000679829 -0.021103 0.343528

1396 2 H 11.6045 42.8489 24.9879 -0.0115878 -0.0441552 -0.0411083 0.276656
	1394 3 O 12.3427 43.023 25.7212 -0.0141073 -0.00634588 -0.000135143 -0.629542
	1395 2 H 12.3103 42.0564 26.0521 -0.00341755 -0.0214108 0.0192109 0.305516

3081 2 H 3.69838 38.6726 23.0031 -0.057117 -0.00719845 0.0482017 0.384386
	3080 3 O 3.95939 37.9716 23.5622 0.0200149 -0.00164538 -0.0134327 -0.694478
	3082 2 H 3.68961 37.1281 23.481 0.0456591 -0.00851719 -0.0436411 0.364833

3504 2 H 1.5241 44.0091 20.6088 -0.0267744 0.0326389 0.054718 0.395872
	3503 3 O 1.89281 44.3979 21.3698 0.0178532 -0.000863776 -0.0134419 -0.620931
	3505 2 H 2.56739 43.5559 21.7724 -0.00142733 -0.000870831 -0.033839 0.362759

79 2 H 10.5397 44.1767 -9.51304 -0.0182241 0.0508171 -0.0395149 0.23652
	75 1 C 9.74838 43.4664 -8.75116 0.0173239 0.00373325 0.0107981 -0.145806
	77 2 H 8.70921 43.6958 -8.91039 0.0346574 0.0155437 -0.000991668 0.179753

2199 2 H 47.8576 2.68923 26.5039 0.00159005 0.0537367 0.0308079 0.36015
	2198 3 O 47.4251 2.43995 25.7325 -0.0185356 -0.00612692 -0.00905018 -0.743182
	2200 2 H 46.6186 2.82497 25.5816 0.0228455 0.0246778 0.0107752 0.386333

3119 3 O 3.968 7.71523 18.8401 0.00215382 0.0127931 0.00214514 -0.621338
	3120 2 H 4.88439 7.79696 19.4118 -0.0163013 0.0493257 -0.0331542 0.288344
	3121 2 H 2.97923 7.81065 19.262 -0.0607093 0.0192482 0.030453 0.324318

1729 2 H 6.35374 6.67099 20.9678 -0.00853476 0.019774 -0.0215639 0.276671
	1727 3 O 7.02833 7.1524 20.2121 0.000178393 0.00261281 -0.00175477 -0.672262

3129 2 H 10.8429 43.8328 19.5861 0.0277854 -0.078099 -0.075516 0.360476
	3128 3 O 10.9768 44.4462 20.3286 -0.0100467 -0.0167493 0.00845216 -0.688097

1685 3 O 8.14282 3.58057 21.6088 0.00470405 -0.0019612 -0.0105222 -0.71008
	1687 2 H 8.10726 2.73699 21.5188 0.0782137 0.0206048 0.0109168 0.386099
	1686 2 H 7.18728 3.86329 21.739 -0.0581194 -0.0152394 0.0351745 0.272773

954 2 H 7.1537 36.774 24.4887 0.0421058 0.0367202 -0.125907 0.363611
	953 3 O 7.89901 37.2209 24.9217 -0.0113846 -0.00257949 0.0236719 -0.676668
	955 2 H 8.55901 36.8178 25.3198 -0.0154812 0.0341545 -0.114143 0.408233

2963 3 O 1.27577 38.9994 25.9621 -0.00335478 0.00840213 -0.0117405 -0.758134
	2965 2 H 1.55561 38.1607 25.6619 0.0369947 0.00800562 -0.0167854 0.369033
	2964 2 H 1.54232 39.2327 26.7271 -0.0447341 -0.0184897 -0.00733972 0.408593

3944 3 O 37.7315 2.80368 22.9379 -0.0125247 0.00907782 0.0106804 -0.800301
	3945 2 H 37.7235 2.19727 23.6434 0.0475209 0.0909293 -0.104717 0.317397
	3946 2 H 37.5735 2.38278 22.2095 0.0213747 0.0194232 -0.0543723 0.317352

679 2 H 40.5962 2.2388 21.0709 -0.0351015 -0.00869289 -0.00950384 0.342359
	677 3 O 41.1095 2.5654 21.7626 -0.00818998 -0.0123053 -0.00610962 -0.704482

653 3 O 43.7133 6.21759 23.3784 -0.0148201 -0.00745045 0.00892016 -0.718103
	655 2 H 44.2483 5.54903 22.8088 -0.126654 -0.00146432 0.0418415 0.308018

4389 2 H 6.22625 -27.4916 -13.2508 -0.0909178 -0.0389116 0.0653792 0.281678
	4388 3 O 6.40738 -27.4261 -14.2409 0.00718599 -0.00101188 -0.0123081 -0.67608
	4390 2 H 5.58745 -28.0101 -14.6831 -0.0231037 0.0384852 0.0101248 0.333341

4470 2 H 44.178 7.17321 20.5854 -0.00928557 0.0304468 -0.0387442 0.312452

1086 2 H 4.66819 3.48711 -14.5371 -0.0382043 0.0529341 0.0260371 0.256456

1264 2 H 2.13355 0.109053 26.668 -0.00329785 -0.011795 0.015587 0.336187

4264 2 H 44.0935 42.5025 24.2319 -0.0013508 0.0119028 0.043135 0.336018

4059 2 H 5.45707 0.478598 25.8742 0.0282892 0.104629 0.0159878 0.354817
	4058 3 O 5.31675 1.00599 26.5916 -0.0096397 -0.00851173 0.0122023 -0.627643
	4060 2 H 6.15651 1.68707 26.4388 0.0636142 0.055131 -0.0167492 0.35678

583 2 H 43.9257 44.4756 61.2867 -0.0508111 0.0146532 -0.0212783 0.280529
	581 3 O 44.69 45.098 61.8151 0.00164416 0.0288808 -0.000463805 -0.696847
	582 2 H 45.0063 45.6176 61.2214 -0.0128036 0.0320585 0.018638 0.393128

3612 2 H 38.2332 36.5422 22.6009 -0.00468179 -0.00897261 -0.0604165 0.303646
	3611 3 O 38.5605 35.7742 22.2858 -0.0174617 -0.00101224 0.0168982 -0.688695
	1435 2 H 38.3951 35.8129 21.2532 0.0134282 0.0108651 0.0195607 0.266833

4348 2 H 43.7495 39.8516 26.0116 -0.020369 -0.0706127 -0.0239953 0.42372

3152 3 O 44.6329 3.45342 26.1352 -0.00602557 0.0276171 -0.00473956 -0.742659
	3153 2 H 44.7022 3.35108 27.1088 0.0319039 0.0646332 -0.0411791 0.341986

4767 2 H 0.625806 3.77614 24.307 -0.0451748 -0.00750343 -0.00640616 0.373866

1818 2 H 9.59436 45.5288 22.4562 -0.00425548 -0.023763 -0.0562795 0.327706
	1817 3 O 8.83155 45.8928 23.037 0.00409475 -0.00508566 -0.00601572 -0.656717
	1672 2 H 8.02783 45.7715 22.4744 -0.0353453 -0.0474798 0.0198367 0.416855

4962 3 O 37.5977 6.6574 30.5 0.00514529 0.00209957 0.000196581 -0.227361
	4963 3 O 36.4556 6.93003 30.2339 -0.0100757 0.00154047 0.00230042 -0.25698

559 2 H 6.30772 1.99298 68.128 0.0505592 0.0103783 0.0163242 0.3154
	557 3 O 6.95454 2.16437 67.505 0.00313853 -0.00485431 0.00450564 -0.721136
	558 2 H 7.23457 1.43793 66.9276 0.0177837 -0.0336999 -0.0208974 0.307083

2337 2 H 6.17805 40.842 33.2476 -0.00555745 0.000227268 0.00564349 0.323443
	2336 3 O 5.46166 41.1305 33.9605 -0.0129352 0.00830065 0.0141444 -0.652483