ITEM: TIMESTEP
94000
ITEM: NUMBER OF ATOMS
4970
ITEM: BOX BOUNDS pp pp pp
0.0000000000000000e+00 3.6213000000000001e+01
0.0000000000000000e+00 3.6457999999999998e+01
0.0000000000000000e+00 3.6253000000000000e+01
ITEM: ATOMS id type element xu yu zu vx vy vz c_charge
3515 3 O 2.20356 7.8126 39.4729 -0.00345734 -0.00113108 0.00689437 -0.704789
	3517 2 H 1.44454 8.10628 40.0743 -0.0222426 0.0245973 -0.0500846 0.27707
	3516 2 H 2.67935 8.65064 39.1002 -0.0222913 -0.0180208 0.0231694 0.297417

2177 3 O 1.78221 8.07232 7.24681 -0.00276292 -0.0109454 -0.00779563 -0.697918
	1948 2 H 2.41978 8.0233 8.0833 -0.0887597 0.0153191 -4.79445e-05 0.390213
	2179 2 H 1.2785 8.85669 7.4071 0.0325359 -0.00828501 -0.0160538 0.324555

3798 2 H 6.0137 0.155189 7.12608 0.0326756 -0.0219552 -0.0171069 0.389449
	3551 3 O 5.57024 -0.230246 6.38599 0.00590361 -0.00929212 0.00148016 -0.713404

4581 2 H 7.28377 44.0132 7.43509 0.0332209 0.053893 -0.00221202 0.350073
	4580 3 O 6.46271 44.1539 6.86531 0.000725579 -0.00892249 0.00218706 -0.686962
	4582 2 H 5.85979 43.3589 6.84874 -0.0478766 -0.0344541 0.0353731 0.322566

11 3 O 8.30104 7.43404 4.35755 0.0149415 0.00235066 0.00381856 -0.521743
	5 1 C 7.53093 7.16968 3.46303 0.00514659 -0.00284492 -0.0147756 0.31398

4449 2 H -24.2271 2.82542 4.98165 -0.0566275 0.066854 -0.0251113 0.288893
	4448 3 O -24.9191 2.00047 5.03466 -0.012583 -0.0091211 -0.00839964 -0.658314
	4450 2 H -24.8028 1.51194 4.09018 -0.0743038 0.0403362 -0.0231025 0.316036

3959 3 O 0.645254 8.8237 1.12836 -0.0241595 -0.0169107 0.00525046 -0.626085
	3961 2 H 1.0021 9.3193 2.06734 0.00168812 -0.00393968 0.0404561 0.270417
	1965 2 H 0.931354 7.8359 1.33103 -0.0648474 0.0353758 -0.0421763 0.312807

619 2 H 6.70247 1.15708 3.43256 0.0196967 -0.0358245 0.00578112 0.331929
	617 3 O 6.47927 1.68553 4.22885 -0.017478 0.00444294 -0.00328635 -0.625157
	618 2 H 7.00488 2.57385 4.0343 -0.015756 0.0285287 -0.0753158 0.322718

656 3 O 11.3766 4.65212 2.8099 -0.0202072 0.00719515 0.00262668 -0.688098
	658 2 H 10.8006 4.93653 2.1622 -0.0219735 0.0552859 0.0427012 0.394745
	657 2 H 10.945 4.03136 3.46525 0.0152922 0.099107 -0.0206996 0.341918

455 3 O 9.1309 37.4169 39.8031 -0.0091868 -0.00341336 0.0152973 -0.705778
	457 2 H 9.35912 36.3036 39.5602 -0.083874 -0.00886123 -0.00784429 0.293043
	456 2 H 9.68355 37.778 39.2516 -0.0346027 0.0506928 0.0149712 0.393473

2769 2 H 1.70684 42.2882 40.4999 -0.0139157 0.0646527 -0.0161228 0.31778
	2768 3 O 1.59987 41.5228 41.1391 0.000837974 -0.000223667 -0.000729977 -0.763824
	2770 2 H 2.12697 41.24 41.7454 -0.039118 0.0292957 0.0275986 0.40369

8 4 N 5.15001 5.19091 0.416668 -0.00339338 -0.0104804 0.00837111 -0.427722
	13 2 H 5.53551 4.70237 -0.542404 0.00564875 -0.0719634 0.0232735 0.260797
	14 1 C 3.88463 4.77256 0.454275 -0.0020975 -0.0198778 -0.0115145 0.402381
	16 3 O 3.09888 5.02387 1.40493 -0.00908585 -0.0124772 -0.0227098 -0.485904

848 3 O -35.231 37.7242 7.41417 -0.00730805 -0.0180432 0.00286654 -0.615556
	556 2 H -34.3953 37.4225 7.27526 0.0333378 0.05233 0.0206245 0.351622
	850 2 H -35.5348 36.7411 7.53669 -0.0578448 -0.0262818 -0.0901976 0.357799

177 2 H 3.04163 38.6136 8.63522 -0.0575223 0.042496 -0.0205538 0.41416
	4517 3 O 2.91763 39.5448 8.55448 0.00420709 -0.00290035 0.0149443 -0.616968
	4519 2 H 1.90296 39.7272 8.34709 0.000948731 -0.106422 0.0306154 0.412341

4093 2 H 8.77172 40.5151 38.0987 -0.0119746 0.0201501 -0.0345448 0.374588
	4091 3 O 9.44805 40.25 37.5283 0.0026846 -0.00739074 -0.022222 -0.73346

4226 3 O 3.90527 0.758191 8.22281 0.00379746 0.00163835 0.00321661 -0.750649
	4227 2 H 4.00292 0.281541 7.43791 0.0529175 0.0278567 -0.021138 0.388842
	4228 2 H 3.12597 0.236059 8.61932 -0.0198476 0.018457 -0.0146358 0.288215

4 1 C 8.14001 6.74075 2.10982 0.00471084 -0.00878338 -0.00370662 -0.118003
	10 2 H 9.21 6.66974 1.79475 -0.0253263 -0.061932 0.0136033 0.175129

1765 2 H 7.95724 37.3698 37.9676 0.0335777 0.0044941 -0.110711 0.394476
	1763 3 O 7.45519 36.8158 37.4579 -0.00488817 0.00213764 0.00738289 -0.814022
	1764 2 H 6.82416 36.3299 37.5745 -0.0387469 0.00841861 -0.0423279 0.438216

3790 2 H 41.4072 4.52517 4.99716 0.0201846 0.0667322 -0.0214701 0.361879
	3788 3 O 41.9942 4.069 5.59554 -0.00966459 -0.000663143 -0.00239981 -0.678068
	3789 2 H 41.5068 3.93684 6.37922 -0.138903 -0.016762 -0.00235036 0.34641

3900 2 H 46.238 37.5939 5.99215 0.0848138 -0.0262623 0.117738 0.375913
	3899 3 O 45.2514 37.1894 6.18633 0.00638542 0.00586354 0.00970261 -0.713694
	3901 2 H 44.7457 37.4788 5.44119 0.0777549 0.0605747 -0.0322866 0.409481

4941 3 O 6.62581 2.01815 8.39452 -0.00452733 0.0180847 -0.0212894 -0.661737
	1378 2 H 6.6851 2.22459 9.27896 0.00600684 0.106855 0.0124559 0.305306
	3190 2 H 5.79166 1.38662 8.67429 0.00149059 -0.0754137 0.0599959 0.272957

2685 2 H 7.73294 4.14928 8.04888 0.035692 0.0734367 -0.0137223 0.353202
	2762 3 O 8.70478 4.40488 8.05536 -0.00501182 0.0239203 -0.002836 -0.653192
	2764 2 H 9.23269 3.58887 7.80985 -0.0169826 -0.00401737 -0.0977902 0.324877

17 2 H 2.97522 2.76893 0.0342607 -0.086232 -0.041658 -0.0603342 0.210653
	15 1 C 3.20652 3.71534 -0.458068 0.000790028 0.000496004 -0.000860657 -0.257458
	19 2 H 3.88246 3.2448 -1.12161 -0.0662644 -0.0570007 -0.0392034 0.180529
	18 2 H 2.32035 4.14967 -1.0439 -0.0743681 0.0548617 0.0126549 0.150913

2202 2 H 11.1406 0.884378 8.68909 0.048736 -0.0600102 -0.0102462 0.274209
	2201 3 O 11.0224 0.487528 9.73587 0.00781611 0.00806895 -0.00362348 -0.675516
	1350 2 H 10.2734 0.931887 10.1852 0.0155939 0.0335809 -0.0354887 0.37768

1148 3 O 4.62009 3.54069 3.20706 -0.00541813 0.0136638 0.00624265 -0.603964
	1149 2 H 4.70088 3.0416 2.22326 -0.0389666 0.0204491 -0.00786896 0.301334
	1150 2 H 3.58099 3.59695 3.09786 -0.00774984 0.0478521 -0.00604808 0.331313

459 2 H 3.23826 6.85375 4.6945 -0.0355795 0.0564384 0.0485261 0.335341
	458 3 O 3.31757 6.86701 5.63906 -0.0130664 0.00368532 0.000727837 -0.656275
	460 2 H 2.25991 7.14961 5.98224 -0.0337455 -0.0139019 0.0239278 0.372774

3069 2 H 36.8691 37.0147 3.49194 0.023599 0.0373648 -0.0177048 0.324067
	3068 3 O 36.8126 37.7171 4.29727 0.000222785 0.020348 -0.00307126 -0.627168
	3070 2 H 37.8168 37.952 4.33813 -0.000958267 -0.0414721 0.0699693 0.34127

1677 2 H 3.95415 37.1077 5.23207 -0.00435925 -0.0196353 -0.00528106 0.327315
	4376 3 O 3.60995 38.1305 5.36202 -0.00253024 0.00973057 0.00207704 -0.651734
	4378 2 H 4.46486 38.4252 5.38858 0.0506671 -0.064461 -0.0553793 0.411327

7 2 H 4.2233 6.10321 2.84941 -0.0621258 -0.0302632 -0.0332369 0.182456
	1 1 C 5.34906 6.32671 2.52585 0.00491486 -0.0167293 -0.00588125 -0.0934946
	6 1 C 6.13464 6.83802 3.52081 -0.00771489 -0.0197923 -0.00572312 -0.155255
	12 2 H 5.90022 7.43569 4.4732 -0.0119169 0.0207063 0.0315577 0.161503

982 2 H 0.664069 4.73128 2.98791 0.00563823 0.07093 -0.000388588 0.327313
	980 3 O -0.246212 4.40672 2.62894 0.00647739 0.0110673 0.00276949 -0.724
	4747 2 H -0.0842388 3.51406 2.20486 -0.0105293 0.0076355 0.0793108 0.379971

535 2 H 42.8998 2.69271 2.35469 0.020989 0.0839836 -0.0726373 0.285419
	533 3 O 43.0974 3.40416 1.61115 0.00418692 -0.0103045 -0.00857076 -0.653924
	534 2 H 43.1314 4.17137 2.26188 0.00675227 -0.035599 0.0815146 0.310488

3459 2 H 1.90474 37.6901 2.20337 -0.0514801 -0.0140066 -0.0125286 0.31654
	3458 3 O 2.03776 38.3055 1.62684 -0.00519044 -0.00677474 -0.00991495 -0.697462
	472 2 H 1.456 38.038 0.771456 -0.0346222 -0.0167946 -0.00648901 0.318014

2131 2 H 37.5513 3.77952 36.8215 0.0336084 0.0461437 -0.048306 0.371357
	2129 3 O 37.1802 3.28415 36.126 0.00570054 -0.00192173 0.0103908 -0.771098
	2130 2 H 36.3164 3.66247 35.973 -0.010408 0.0753997 0.0474164 0.372855

674 3 O 10.341 37.7798 37.224 0.000261406 -0.00992991 -0.0149155 -0.658534
	2194 2 H 10.1035 38.8588 37.0075 0.0145761 -0.00898803 -0.0456286 0.34969

1606 2 H 44.784 44.3003 7.34166 -0.0342513 0.084711 -0.0529346 0.299897
	1604 3 O 45.7004 43.9831 7.71914 0.0169264 -0.00606336 0.0135951 -0.61262
	1605 2 H 45.9585 43.1408 7.11574 0.0417335 0.0300981 -0.0289871 0.29609

4876 2 H 10.7125 7.34519 0.882833 0.0161847 0.0216664 0.017287 0.377257
	4874 3 O 11.0398 6.85541 1.56241 0.00522079 -0.00426085 -0.0326168 -0.729285
	4875 2 H 11.6765 6.1626 1.34629 0.0671941 -0.0288452 0.0501731 0.351287

1954 2 H 10.0157 43.6276 4.79651 -0.00127232 0.0313225 0.0559408 0.304919
	1952 3 O 11.0527 43.775 4.29116 0.00835434 -0.00163712 0.0140058 -0.540276
	1953 2 H 10.8019 42.9476 3.7354 -0.0590427 -0.0493993 -0.02834 0.354582

2527 2 H 7.30315 8.90331 41.5945 0.00795176 -0.0463841 0.0151511 0.378475
	2525 3 O 7.13756 9.82355 41.3849 0.00791612 -0.00262995 0.000893304 -0.678526
	2526 2 H 8.19705 9.88128 41.1069 0.0291262 -0.0244806 -0.0260423 0.272164

2937 2 H 45.2921 3.99156 36.5829 0.0379907 0.0371679 -0.024562 0.293864

1663 2 H 11.6215 5.89546 43.4973 -0.00362914 0.00965225 -0.0445502 0.33073
	1661 3 O 11.5195 5.27526 42.7749 0.0139206 0.0117321 -0.0125723 -0.660153
	1662 2 H 12.4579 5.26055 42.3081 0.0089714 0.00237948 0.0454778 0.369798

744 2 H 6.84566 36.7281 8.82922 -0.00141063 -0.05515 -0.0588917 0.289966
	743 3 O 7.18798 35.6542 8.4401 0.00847905 -0.016113 0.00140126 -0.615201
	745 2 H 6.86415 35.2099 9.29142 -0.0114518 -0.00889832 0.0437947 0.373772

2 1 C 5.93565 5.94404 1.3004 -0.00482136 -0.00964393 -0.00716738 0.154869

2035 2 H 9.53995 4.71621 41.2664 0.0317875 -0.0538793 -0.000571436 0.339852
	2033 3 O 8.92606 4.38676 40.673 0.016314 -0.00303657 0.0141606 -0.695778
	2034 2 H 8.1644 4.45402 41.3035 -0.0331187 0.0165173 -0.0102058 0.338657

1732 2 H 37.3686 6.85103 0.193537 0.0489163 0.0266423 0.0187149 0.292536
	1730 3 O 36.4574 6.73688 -0.131258 -0.00917862 0.00720801 -0.00104135 -0.677623
	1731 2 H 36.281 7.75723 -0.29305 -0.0167699 0.00332494 0.0493169 0.34697

3 1 C 7.3911 6.18837 1.05555 -0.00926075 0.0152193 0.00224972 -0.164262
	9 2 H 7.7272 6.14737 0.0415346 -0.00755007 -0.059366 -0.0232868 0.140658

1032 2 H 11.0094 1.10891 36.5762 0.00789486 -0.0120228 -0.0165959 0.297388

4111 2 H 4.68303 6.61693 8.55148 -0.032436 0.102395 -0.0436137 0.329848
	4109 3 O 3.90878 6.72872 9.07585 -0.00560331 -0.0134557 0.0061808 -0.685663
	4110 2 H 4.23471 7.50951 9.53919 0.018391 -0.00407871 -0.0472312 0.368802

2569 2 H 12.0315 8.40139 36.2866 0.00228778 0.0522421 0.00725339 0.338589
	4418 3 O 11.7229 7.93414 35.5859 -0.000435851 0.0103678 0.00957847 -0.749992
	4420 2 H 12.3653 7.99976 34.8392 -0.0657929 -0.0340932 -0.0505 0.369267

3181 2 H 4.59429 8.67217 5.77282 0.0402661 -0.0747124 -0.038065 0.346448
	3179 3 O 4.623 9.59906 5.17187 0.00062374 0.00811153 -0.00360608 -0.646229
	3180 2 H 5.23326 10.3048 5.34819 -0.000399022 0.0359953 0.0840983 0.384295

2184 2 H 4.9715 1.82689 11.5667 -0.00425498 0.0147293 -0.0103366 0.283088
	2183 3 O 4.32203 2.61514 11.2759 0.00300271 0.00276449 -0.0052162 -0.596001
	2185 2 H 4.4172 2.4874 10.3044 0.025895 -0.0531799 0.0437885 0.323656

814 2 H 6.36516 5.02646 11.5006 0.0360679 0.0265418 -0.0801341 0.331458
	812 3 O 5.81013 5.53694 12.1305 0.0123143 0.0031899 -0.016289 -0.699048
	813 2 H 5.97657 5.06666 12.9356 0.0196596 -0.026106 -0.0422354 0.380967

4316 3 O 38.7177 2.79659 14.4987 -0.00333414 0.00278129 -0.000523997 -0.680208
	4317 2 H 37.9222 3.02312 14.4139 -0.00958886 -0.0562612 -0.000662694 0.334622
	4318 2 H 39.1939 3.2821 13.7247 0.0157848 0.0830796 -0.0294943 0.335292

4407 2 H 1.45165 5.39292 49.9861 -0.0327504 -0.0362771 0.0685899 0.322831
	4406 3 O 0.745824 5.24433 49.4244 -0.000486525 -0.00710332 -0.00194123 -0.644455

4033 2 H 8.24159 44.3025 16.5919 -0.0279295 0.0335762 0.017699 0.424384

3203 3 O 38.1071 38.0268 11.2993 0.011576 0.00130272 0.00721959 -0.646452
	3205 2 H 37.0625 38.3681 11.1564 0.0452285 0.00545896 0.0375495 0.365773
	3204 2 H 38.1797 37.7296 12.1137 -0.0601073 0.00961683 0.00148485 0.360397

2237 3 O 3.07858 3.12091 17.5994 0.0273897 -0.00335647 0.00131501 -0.624997

1229 3 O 39.213 42.7526 11.6615 -0.00758638 0.0153835 0.0128151 -0.718228
	1231 2 H 39.2891 42.2152 10.9462 -0.0117916 -0.0175244 0.0246557 0.417644

1555 2 H 4.45754 7.4845 13.9551 0.0540573 -0.0126289 0.00579037 0.382339
	1553 3 O 4.48395 7.83916 13.0489 -0.00470808 -0.00510667 -0.00589195 -0.706648
	1554 2 H 5.31623 7.19879 12.7832 -0.0356271 0.00610227 0.015912 0.353949

3525 2 H 7.40316 39.3332 14.3477 -0.0155911 -0.0206384 0.0379683 0.383262

4032 2 H 4.50144 44.0961 16.8387 -0.00067815 0.0174193 -0.025393 0.347237
	4031 3 O 4.64259 43.9037 15.8977 -0.00419779 -0.00660029 -0.00324537 -0.681836

1025 3 O 8.07734 2.74993 13.6128 0.0196747 0.00764562 0.0181654 -0.682846
	1027 2 H 9.06359 2.52664 13.8499 0.0682974 0.0277404 -0.0108151 0.355167

842 3 O 11.8656 8.22646 10.9157 -0.0323275 0.00640463 0.00897192 -0.705308
	844 2 H 11.1233 7.85167 10.2547 -0.0328983 0.0068042 0.0323311 0.376459
	843 2 H 11.5653 8.29289 11.9093 0.0257177 0.0321058 -0.0363463 0.358426

2864 3 O 37.1005 37.2488 15.9075 0.0124922 0.000786852 0.0135039 -0.683564
	2866 2 H 37.6746 37.3853 16.5917 -0.0098712 0.0154056 -0.0490643 0.353809
	2865 2 H 37.2777 37.8609 15.293 0.00710801 0.0401529 0.0806501 0.342524

3085 2 H 11.8721 37.9655 17.1127 -0.00653015 0.0144907 0.0228908 0.339456

3767 3 O 40.1951 36.5167 12.5716 0.00141539 0.0100099 -0.0072697 -0.763136
	3769 2 H 40.8043 35.5819 12.0752 -0.0233272 -0.0262513 0.0126347 0.251819

1206 2 H 10.5453 42.7272 10.7235 -0.0407539 0.0227664 0.0329919 0.328719

1972 2 H 44.2645 37.7671 11.2389 0.00774993 -0.0105481 0.0195495 0.388979
	1970 3 O 43.3689 37.1725 11.0007 0.00653229 0.00233196 -0.00476452 -0.635039
	1971 2 H 42.8304 37.9051 10.6459 -0.00584534 -0.0411063 0.00880412 0.265892

1154 3 O 7.53334 45.2916 17.8151 -0.0134321 0.0120778 -0.0106957 -0.666422
	1155 2 H 7.25419 44.9184 18.6078 0.00275615 -0.00218685 0.00844372 0.402263
	1156 2 H 6.61196 44.8888 17.3342 -0.0586468 0.0227871 0.0191144 0.296028

809 3 O -24.4884 37.1675 17.7205 0.00248253 -0.00182836 -0.0170393 -0.638283
	810 2 H -23.5772 37.0907 17.9911 -0.0421492 0.0334 -0.0174744 0.256333

566 3 O 36.4266 45.0223 10.6252 0.00809795 -0.00274607 -0.00309338 -0.724797
	567 2 H 37.1295 44.476 10.841 -0.0111002 0.114069 0.029036 0.331398
	2836 2 H 36.9322 45.5098 9.98879 -0.0163192 0.0222031 -0.0157594 0.327959

2204 3 O 11.4548 39.8367 15.9292 0.0026428 0.000780947 -0.00856031 -0.71557
	2206 2 H 11.6516 39.389 15.1814 -0.0269164 -0.00919552 -0.014512 0.385227

1420 2 H 11.5783 4.27347 14.072 -0.01711 -0.0458081 0.00375864 0.357287
	1418 3 O 10.7347 4.25574 13.7261 -0.00238114 -0.00383856 0.010823 -0.682566
	1419 2 H 10.8041 4.03626 12.7015 0.0110065 0.0451854 0.023792 0.294644

1888 2 H 39.9033 0.463401 11.8957 -0.000525189 -5.24517e-05 0.0385681 0.388083

3246 2 H 10.6211 39.3935 -19.859 -0.0135711 0.0468686 -0.0457144 0.38253

2239 2 H 4.90269 6.54772 15.7443 -0.015389 -0.0231122 0.0820178 0.349711

587 3 O 37.2956 8.85482 16.6085 0.00433459 -0.00786938 0.00597374 -0.565416
	589 2 H 36.8921 9.73444 16.9795 -0.000141779 -0.0192504 -0.024631 0.330398
	588 2 H 37.0469 8.97833 15.645 -0.0195649 0.0521937 0.00587497 0.329903

4779 2 H 39.1655 45.0772 10.2081 0.0186432 -0.00837033 0.0642816 0.382624
	4778 3 O 38.9795 45.5171 9.48459 -0.00738135 -0.00521775 0.0107755 -0.78348
	4780 2 H 38.9444 46.2818 8.82654 -0.0308108 0.00836139 0.0127116 0.330083

1171 2 H 3.56785 43.4745 11.9492 -0.0355759 0.0325299 0.0307016 0.406617

867 2 H 47.3737 36.6293 14.048 -0.048723 -0.0478207 0.0366626 0.3483
	866 3 O 47.2797 37.4795 14.5315 -0.00845807 0.00947163 -0.00444936 -0.641971
	435 2 H 47.2824 38.1092 13.7721 -0.0347246 -0.053534 -0.00478138 0.254124

2687 3 O 37.0454 3.68318 9.71101 -0.00843467 -0.000883421 0.00692182 -0.61232
	4306 2 H 36.085 3.39938 9.32516 0.0321368 -0.0156767 -0.0347348 0.350883
	2688 2 H 37.0042 4.34501 10.6036 0.039614 -0.0230495 0.0189106 0.314709

1249 2 H 7.74421 1.96912 16.9796 0.0300004 0.0309581 0.00505847 0.354253
	1247 3 O 8.10271 1.9992 16.0345 -0.00976933 0.00476178 -0.0156902 -0.677522
	3529 2 H 8.62205 1.2108 16.0484 0.0369264 0.012986 0.00164214 0.379285

887 3 O 41.8401 0.176149 14.5927 -0.0150768 -0.0137837 -0.00191546 -0.620522
	889 2 H 41.4008 -0.00942339 13.687 0.0304746 0.0336508 0.0178989 0.378504
	888 2 H 42.2409 -0.691569 14.5828 -0.0537978 -0.0136991 0.0129966 0.341376

986 3 O 7.9574 6.89315 -20.1067 0.0241591 -0.00318047 0.00201289 -0.726735
	988 2 H 8.05922 6.9806 -21.0504 0.0118215 0.00886464 -0.0195899 0.359228

2551 2 H 9.89934 6.4799 13.2271 -0.00382522 0.044898 -0.0467267 0.373158

1279 2 H 43.6502 40.7719 15.1272 -0.0461084 0.0132526 -0.0139556 0.308732
	1277 3 O 43.5438 41.5703 14.4887 0.00575631 -0.00716053 0.00901621 -0.691945
	1278 2 H 44.5413 41.6417 14.3466 0.0185674 0.00952643 0.0677519 0.412869

1230 2 H 47.3568 40.4691 9.76434 -0.0609251 0.0167527 -0.0227022 0.316924

4307 3 O 47.6916 6.50356 15.1379 -0.00581414 -0.00732068 -0.00540719 -0.790147
	4309 2 H 48.3981 6.94597 15.382 -0.0712195 0.00264645 0.0186912 0.364808
	4308 2 H 47.2095 5.87754 15.7797 -0.00621389 0.00851225 0.0173309 0.351158

4469 3 O 45.2839 6.52155 13.3444 -0.00542709 -0.00698166 -0.01056 -0.725067
	4471 2 H 45.1309 7.42317 13.7504 0.0122706 -0.0571528 0.0140215 0.296568

2093 3 O 0.291319 42.384 15.9741 0.0087807 0.00334832 0.000222739 -0.630159
	2094 2 H 0.964465 41.7144 16.1321 0.0539695 0.0270281 -0.0209585 0.323701
	2095 2 H 0.118224 41.831 15.1275 -0.0118379 0.0274334 0.0116496 0.333069

2534 3 O 11.5036 8.39335 13.6986 0.00544959 0.0197026 -0.0114134 -0.81342
	2536 2 H 11.8986 8.6968 14.343 -0.00341622 0.0676858 -0.0272148 0.366564
	2535 2 H 10.8751 7.7054 13.9523 0.0179801 0.0025458 -0.0141235 0.358964

4263 2 H 39.3101 38.6299 17.4514 -0.0605447 -0.0470975 -0.0588952 0.306618

725 3 O 10.9503 40.8104 10.6922 0.0118161 0.0102756 -0.00860811 -0.761371
	727 2 H 10.0632 40.7492 10.7215 0.0461871 0.00571717 0.0311175 0.337105

1512 2 H 43.16 41.1967 17.6486 -0.0181001 -0.0206891 0.0300201 0.451774
	1511 3 O 42.6278 41.3651 16.9647 -0.00423894 -0.0139511 -0.0160145 -0.724462
	1513 2 H 42.9927 41.8425 16.2084 -0.0380513 -0.0365108 0.00156473 0.411748

3416 3 O 9.24028 4.82057 16.5133 -0.00662027 -0.0144893 0.0029098 -0.738389
	3418 2 H 9.03349 5.79737 16.7127 -0.0394494 -0.0384145 -0.0230657 0.374684
	1723 2 H 8.60689 4.50494 16.8428 0.0428818 0.0478602 0.0578024 0.410618

1886 3 O 9.92418 6.70855 10.087 0.00193407 -0.0161353 0.0187226 -0.647425
	1887 2 H 10.0472 6.4244 9.03852 -0.0341987 -0.0126298 -0.0607656 0.366433

3781 2 H 10.695 8.34984 17.3231 0.0157876 -0.0167233 0.0434811 0.297516
	3779 3 O 9.92341 7.69447 17.2831 -0.00815605 -0.0118046 -0.00362433 -0.726191
	3780 2 H 10.2507 7.01635 16.848 0.0145325 -0.0495653 0.0731225 0.321795

3291 2 H 8.21376 39.7566 12.0368 -0.0227424 -0.00409377 0.0234985 0.358378
	3290 3 O 8.08305 39.8831 10.9425 -0.00765928 -0.00490734 -0.00715697 -0.703708
	3292 2 H 8.35141 40.8014 10.6874 0.0329029 0.0467701 -0.0183572 0.317709

932 3 O 9.66179 0.579412 11.8879 -0.00766437 6.81848e-05 -0.00209441 -0.689819
	934 2 H 9.58239 -0.0168495 12.5215 0.115284 0.0362271 -0.0356581 0.417837
	933 2 H 10.7922 0.720454 12.0427 -0.00835505 -0.06417 0.0298301 0.241177

4478 3 O 6.99461 6.48286 9.19099 0.0220904 -0.0130211 0.0108228 -0.624468
	4479 2 H 7.36823 7.20011 9.92673 -0.0593838 0.0416229 -0.018385 0.360342
	4480 2 H 6.0998 5.98518 9.38376 -0.0253553 0.0319796 -0.0459304 0.289667

3120 2 H 4.20736 8.55283 17.8861 -0.0131792 -0.0418772 -0.0442515 0.313476
	3119 3 O 3.99148 8.17824 18.7929 0.000385549 0.0158716 -0.0100235 -0.611255
	3121 2 H 2.95416 8.31175 19.1816 0.0810951 -0.0522537 -0.0293222 0.384568

3535 2 H 41.5661 0.646047 17.4753 -0.0831449 0.0175805 0.0417268 0.370336
	3533 3 O 41.2167 0.225569 18.1571 0.0146263 -0.0199468 -0.00442921 -0.767041
	3534 2 H 41.1831 -0.768585 18.2027 0.057344 -0.0400665 -0.0501291 0.320018

1709 3 O 37.2564 45.2449 50.0419 0.0224363 -0.00320653 0.00632267 -0.678782
	1710 2 H 36.4503 45.6556 50.2883 -0.0341259 0.125672 0.0138154 0.296655
	1711 2 H 37.7955 46.0595 49.9549 0.0331763 -0.0205285 -0.0108787 0.332212

608 3 O 7.72715 36.6514 17.9993 0.0179598 -0.00622622 0.00349069 -0.771099
	609 2 H 6.98188 36.1163 17.7451 0.0174836 0.0249768 0.013867 0.364122
	610 2 H 7.15047 37.2258 18.576 -0.0410418 -0.0502151 -0.00876137 0.308235

3792 2 H 41.8151 39.4998 17.9665 -0.0312599 0.0247443 0.0165135 0.415281
	3791 3 O 42.363 39.4186 18.5844 -0.0126231 0.00386184 -0.014698 -0.770664
	3793 2 H 41.7353 39.1557 19.4013 0.016999 0.0511924 -0.00259552 0.356111

4338 2 H 0.737618 42.8048 13.0133 0.0527703 0.0295796 0.0221603 0.323831

2477 3 O 5.42869 -27.3873 9.29877 -0.0164201 -0.0096838 0.0112328 -0.719407
	2478 2 H 4.94554 -26.4942 9.12853 0.0401976 0.024462 -0.00737339 0.295896
	2479 2 H 6.01931 -27.2319 9.99182 0.0371948 -0.0564966 -0.0645073 0.343925

4382 3 O 4.04792 4.71308 26.102 0.00257941 0.0118702 0.0194645 -0.642389
	4383 2 H 3.22783 5.15834 26.5912 -0.028213 0.0226962 0.0639739 0.266739
	4384 2 H 3.63278 5.44306 25.316 -0.0367333 0.00187713 -0.0453142 0.242391

760 2 H 9.23301 41.5119 -12.2061 -0.0401469 -0.0446566 -0.0513169 0.35021
	758 3 O 9.8691 40.8455 -12.3234 0.00651009 0.0090975 -0.0165747 -0.69827

3858 2 H 0.450023 42.4165 26.1639 0.0207291 -0.0380844 -0.00660894 0.338487
	3857 3 O -0.211637 43.1804 26.2681 0.000703148 0.000236686 -0.005749 -0.661166
	3859 2 H 0.0629273 43.9253 25.8359 0.00231479 0.0144842 -0.0100212 0.358182

1672 2 H 8.49199 45.4681 22.1043 0.0340616 0.0157652 -0.0425792 0.302009
	1817 3 O 9.27724 45.3161 22.7527 0.00818298 -0.0138496 -0.00129952 -0.66116
	1818 2 H 9.99449 44.9279 22.2399 0.0274233 -0.0345704 -0.0227548 0.373972

4926 3 O 38.1343 1.67519 19.9901 -0.0127061 0.00939911 0.0189643 -0.754672
	3141 2 H 38.3311 1.76093 20.9823 0.0216667 -0.0603369 0.0316979 0.336914

3337 2 H 1.81496 2.5565 19.7964 0.0356517 -0.0136092 -0.0775753 0.36168

4262 3 O 38.2875 40.8902 20.1641 -0.00683663 -0.00220015 -0.0107599 -0.681509
	3391 2 H 39.2365 40.9765 20.5327 -0.046902 0.00173515 0.0464058 0.302958

1811 3 O 6.98054 43.0486 63.0941 -0.0029934 0.0186693 -0.000410008 -0.629146
	1812 2 H 6.83476 42.8837 64.2113 -0.0439858 0.0333437 0.0486142 0.242543
	1813 2 H 6.29217 42.4134 62.8021 0.0648064 0.0975621 -0.00714088 0.270226

1084 2 H 0.400292 42.5652 21.1276 -0.0496582 -0.0012546 0.0047658 0.279379

2460 2 H 39.3012 6.06295 -13.3332 0.142816 -0.0542393 -0.00988369 0.34296
	2459 3 O 38.8343 5.24165 -13.6815 -0.0160001 0.000591125 0.0106893 -0.703856

4278 2 H 47.5921 6.63317 21.159 -0.00618238 -0.121069 0.0711476 0.247768

3295 2 H 10.5931 36.8703 25.4749 -0.0624592 0.00323288 -0.000315448 0.364725
	3293 3 O 11.261 36.3116 25.6867 0.00812367 -0.00619627 -0.00161162 -0.749197
	3294 2 H 11.0278 36.1496 26.4913 0.0291982 0.00786119 0.00907531 0.389595

2821 2 H 4.8164 7.2476 22.0734 0.0305379 -0.0491189 -0.0580028 0.358586

4761 2 H 7.47258 3.88988 19.1427 -0.0244378 0.0705637 -0.0594469 0.373446
	4760 3 O 7.79246 4.81505 19.0884 -0.00642986 -0.0198143 0.0148191 -0.673449
	4762 2 H 7.6334 4.88249 20.0863 -0.00402215 0.0414677 -0.0355967 0.288627

2509 2 H 5.65947 3.74481 25.2078 -0.0619714 -0.0316948 -0.0593705 0.335387
	2507 3 O 5.87798 3.25821 24.3476 0.00186205 -0.00408196 -0.00908467 -0.697357
	3807 2 H 6.53911 2.78641 24.529 0.00281099 -0.0189278 -0.0186057 0.368858

2016 2 H 11.1585 4.88739 19.1872 -0.0027366 0.0359181 -0.0962296 0.313444
	4241 3 O 10.2794 5.19836 19.0242 0.0111722 -0.00905024 0.00129986 -0.697018
	4242 2 H 10.2315 5.90188 18.2826 0.0166113 0.044904 0.0249751 0.348698

3276 2 H 1.14255 4.50465 -11.0778 0.000580001 -0.0122615 0.0741764 0.298377
	3275 3 O 0.349372 4.74516 -11.6368 0.00680272 0.00526915 0.00130362 -0.724776

3691 2 H 42.2337 42.9967 22.2595 0.0483341 -0.00389067 0.0791763 0.353209
	3689 3 O 41.4403 43.0653 22.6442 -0.00902101 -0.0097946 -0.0023297 -0.681579

3153 2 H 43.904 4.81992 26.2327 -0.0518672 -0.0390676 0.0321312 0.361116
	3152 3 O 44.3506 4.00101 26.0695 -0.00305906 0.00286756 -0.0067253 -0.698074

1579 2 H 9.66483 3.99071 23.1008 -0.0766574 -0.00326388 0.0629238 0.280215

4118 3 O 2.98174 8.45367 23.557 -0.0102717 0.0120692 0.00181894 -0.686232
	4120 2 H 2.54226 9.34165 23.6864 -0.00381138 -0.0169178 0.00160084 0.340509
	4119 2 H 3.35148 8.22721 24.4433 0.0601853 0.0056573 0.0621215 0.328513

3081 2 H 4.19444 36.8578 23.0649 0.0532898 0.00528985 -0.0629452 0.287319
	3080 3 O 4.72486 37.4582 23.6021 0.0113665 -0.0226241 0.00569611 -0.625909
	3082 2 H 4.4048 38.2127 23.2249 -0.0261283 0.0494098 0.0699452 0.39028

3504 2 H 2.88476 42.9679 20.1545 0.0683763 -0.0168702 0.0156768 0.275635
	3503 3 O 2.69336 43.9848 20.8138 0.00822863 -0.0123919 -0.00973706 -0.646682
	3505 2 H 2.13791 43.6614 21.502 -0.0172064 0.0057025 -0.0112068 0.318453

2069 3 O 5.22735 8.58048 25.1153 0.0163511 -0.00267061 -0.00758015 -0.662841
	2070 2 H 4.8212 9.40381 24.8828 -0.006839 -0.101611 -0.0221244 0.282969
	2071 2 H 6.0679 8.42992 24.3832 0.0541883 -0.0237713 0.0307174 0.306273

2461 2 H 37.8438 5.09917 -15.4942 -0.0241451 -0.00083908 0.00583826 0.334362

79 2 H 10.698 43.3993 -9.71162 0.0268179 0.00846285 -0.0716849 0.223984
	75 1 C 9.79441 42.8864 -9.01263 -0.0099051 -0.008037 -0.00597645 -0.1235
	77 2 H 9.16981 43.5273 -8.3101 -0.0295769 0.0107927 0.0200132 0.138748
	74 1 C 9.97629 41.9943 -8.32055 -0.00107542 0.00890951 -0.0155531 0.384154
	76 3 O 10.7603 41.0162 -8.85016 -0.0171251 0.00136131 0.00345129 -0.582019
	67 2 H 10.1967 40.3617 -9.30161 -0.00927579 -0.0471001 0.00261089 0.431082

2199 2 H 47.3211 2.10585 24.9126 -0.099021 0.00949325 -0.00672362 0.319592
	2198 3 O 46.8124 2.57155 25.5887 -0.00371823 0.00103535 -0.00123012 -0.654531
	2200 2 H 45.8754 2.83406 25.2747 -0.0184878 0.0614813 -0.0383103 0.370365

1729 2 H 6.91991 8.06146 20.6918 -0.0566102 -0.0033943 0.0157964 0.359614
	1727 3 O 6.7704 7.47127 19.982 -0.00069227 0.0104482 0.00397536 -0.683684

3129 2 H 10.171 43.0711 20.4089 0.0571031 -0.0126441 0.04584 0.328679
	3128 3 O 10.657 43.8069 20.7886 -0.00854118 -0.00587152 0.00507879 -0.675155

1364 3 O 36.3187 36.7843 20.1328 -0.0183608 0.00694716 0.0047791 -0.695836
	1365 2 H 37.0483 36.2782 20.5519 -0.0426031 -0.0498669 0.0240421 0.389937
	1366 2 H 36.6575 37.1865 19.4105 0.01528 -0.0134263 6.43422e-05 0.389724

1685 3 O 8.2227 3.0355 21.7121 0.00397932 -0.0151733 0.000848251 -0.633493
	1687 2 H 8.87956 3.86849 21.9218 -0.012057 0.0357088 0.0343634 0.213087
	1686 2 H 8.75153 2.62529 21.1364 0.0218842 -0.0150636 -0.0261189 0.306817

954 2 H 7.42101 37.6014 25.949 0.00113641 -0.0111613 0.0628537 0.392391
	953 3 O 7.63624 37.2278 25.2157 -0.00260142 -0.0034006 0.00463388 -0.677069
	955 2 H 7.49736 37.181 24.1596 0.0109583 0.0833629 -0.0670208 0.377343

2963 3 O 1.36103 39.0394 25.5659 0.00650154 -0.00235149 0.00371754 -0.698804
	2965 2 H 2.00518 38.7577 26.2037 -0.0178852 0.000891452 -0.0571119 0.356519
	2964 2 H 0.537657 39.3286 26.119 -0.0198767 0.00557961 -0.0558215 0.308391

3944 3 O 37.5138 3.26531 22.7636 0.00507433 0.00019665 -0.00333729 -0.57469
	3945 2 H 37.4831 3.19743 23.5876 0.0781325 0.0592964 -0.0459509 0.436288

679 2 H 39.9497 2.68648 20.2485 -0.0680143 0.00360346 -0.0386564 0.291052
	677 3 O 40.6837 2.63454 20.9747 -0.008137 0.00516725 -0.0183405 -0.681735

653 3 O 43.1054 5.66369 24.2767 -0.00483712 -0.00831313 0.0295537 -0.684753
	655 2 H 42.9757 4.63721 24.132 -0.0182219 -0.0157229 -0.0231285 0.338786

1437 2 H -24.6517 2.61802 18.5233 0.0125622 -0.0403275 -0.016464 0.339357
	1436 3 O -24.0591 2.80543 19.3319 -0.00479206 -0.00326512 -0.00275305 -0.682502
	1438 2 H -23.6999 1.73559 19.4619 -0.0183964 -0.02729 -0.0754281 0.253899

4470 2 H 43.6453 6.72765 20.2148 -0.0756973 0.0596263 -0.0616934 0.29347

1086 2 H 4.28219 3.46039 -14.7947 0.0148077 0.0222235 -0.0137015 0.339536

1798 2 H 42.4133 0.307368 21.9666 -0.0870415 0.00404345 0.0404298 0.398976
	2603 3 O 43.2219 0.373171 21.9457 0.0122318 0.0249716 -0.00644701 -0.74976
	2604 2 H 43.6779 -0.339199 22.1622 -0.0244139 0.013924 -0.0974409 0.411595

4264 2 H 42.4387 42.4334 24.8601 0.028447 -0.067712 -0.066434 0.363281

4059 2 H 5.8488 1.77242 27.1872 -0.0430477 0.0464006 0.0434552 0.302232
	4058 3 O 5.11115 0.951216 27.0451 0.00012793 -0.00341335 0.01133 -0.699924
	4060 2 H 5.61127 0.343643 27.2935 -0.0795072 -0.0364454 -0.0502712 0.365398

582 2 H 44.5149 45.2992 61.3166 -0.0492234 -0.0430777 -0.00574446 0.311861
	581 3 O 44.465 46.233 61.9561 -0.0146938 -0.000785264 0.0109913 -0.661318
	583 2 H 43.9367 46.079 62.5961 0.0286907 0.087724 0.00781873 0.361352

3612 2 H 38.1807 36.7308 22.9411 -0.00656813 -0.0413914 -0.00911928 0.327181
	3611 3 O 37.8141 35.8534 22.6697 -0.0102487 0.00372329 0.00430229 -0.687736
	1435 2 H 37.9935 35.5832 21.8895 -0.0478504 0.0185745 -0.0184971 0.390789

1394 3 O 11.748 42.6622 25.345 -0.00332553 -0.00660542 -0.0111791 -0.662713
	1396 2 H 12.1402 42.3335 24.5032 0.000273144 -0.00465795 0.00749706 0.314368
	1395 2 H 12.0656 41.9047 25.9972 0.00167175 -0.0302299 -0.0739012 0.345652

3288 2 H 9.89424 3.19225 18.9112 0.000218447 0.0211274 0.0116537 0.396705
	3287 3 O 9.70988 2.51469 18.4004 0.00263757 -0.00294675 0.0126392 -0.720797
	3289 2 H 9.05329 1.62788 18.5475 0.00969961 0.0127132 -0.0201115 0.322993

4152 2 H 38.6326 3.07419 18.4063 -0.0352926 -0.0589197 0.0210629 0.297202

4348 2 H 44.1802 40.3104 25.1287 -0.0322125 5.33906e-05 0.0443764 0.292647

3946 2 H 37.9807 5.21327 22.9484 0.00268249 -0.00352907 -0.0174439 0.372926

438 2 H 9.52051 36.7782 21.0084 -0.0487582 0.0221489 0.0537505 0.31667
	437 3 O 9.89654 36.3401 21.7499 0.00886167 -0.00224484 0.00289368 -0.727915
	439 2 H 10.5207 36.7586 22.3616 0.0334247 -0.0156187 0.0358968 0.300122

140 2 H 39.3972 0.551885 27.1347 -0.0320212 -0.0464771 -0.0421001 0.336177

4962 3 O 37.6534 6.72551 30.5371 -0.00727924 0.0054603 0.00358795 -0.215241
	4963 3 O 36.5104 7.10225 30.57 0.00783867 0.00281627 0.00802519 -0.225088

559 2 H 6.66891 2.3806 68.4517 0.00282626 -0.0118511 0.00083118 0.295888
	557 3 O 6.87895 1.72418 67.7656 -0.0154142 -0.00756549 0.00607744 -0.711089
	558 2 H 6.46838 1.81323 66.9964 0.0400742 -0.0231871 0.00782803 0.320016
